material_id,formula,formation_energy_per_atom
mp-755151,Li3Al2VO6,-2.859061117916667
mp-770727,Li3Al2FeO6,-2.682679986458334
mp-861240,Li3Al2CrO6,-2.8424886366666673
mp-974451,K2Al2O3F2,-3.204007266055555
mp-1227478,Ca2Al2SiO8,-3.093015568076922
mp-1018738,LaAl2BRu2,-0.642257339027779
mp-1071272,CeAl2BRu2,-0.613060769861108
mp-1222911,LaCeAl2O6,-3.6588221085
mp-1247637,Ca4Mn2Al2O11,-2.838288539519055
mp-1247660,Ca8Mn6Al2O23,-2.62496882775862
mp-1247686,Ca8Mn6Al2O21,-2.5936821379077353
mp-1019584,CaAl2SiO6,-3.4282547425
mp-1196459,Al2Sb5(Se2Br3)3,-1.013061592116477
mp-1227582,Ca2Al2(SiO4)3,-3.1262502465789472
mp-1208627,SrHo2Al2O7,-3.648561199583332
mp-1218238,SrLa2Al2O7,-3.62055716875
mp-1224531,Ho3Al2(Ni3H4)2,-0.504627501315788
mp-545404,SrGd2Al2O7,-3.612123938749999
mp-983228,SrEu2Al2O7,-3.305106604583334
mp-1019583,CaAl2SiO6,-3.395796396
mp-1019602,Cs2Al2B2O7,-2.9746650486648982
mp-1194286,MgAl2(PO5)2,-2.798243217952382
mp-1195073,Al2Si2PbO8,-3.105306262596153
mp-1196145,Al2Si2PbO8,-3.103895212211538
mp-1198176,NbAl2(SeCl4)2,-1.748175913822116
mp-1199403,Al2P2NO11,-1.846898799799107
mp-1202735,Al2Fe(PO9)2,-1.149612079968944
mp-1212272,KAl2P2O11,-2.214947087127231
mp-1223763,K2Al2O2F9,-2.688113734966666
mp-1228769,CaAl2(SiO6)2,-2.30245085867647
mp-1238496,Al2H18SO15,-1.653531184236111
mp-1259854,Al2Fe3(PO5)3,-2.436679843322981
mp-559284,Rb2Al2B2O7,-2.9794121660256403
mp-560633,Al2SnCl6O,-2.08123727425
mp-6091,BaAl2(SiO4)2,-3.454300557692307
mp-720965,Al2H18SO15,-1.342803319375
mp-736542,K3Al2Si4O13,-3.034810817920456
mp-757796,Al2H10S3O17,-1.8518914075781252
mp-770362,Li3Al2VO6,-2.795954020208334
mp-770589,Li3Al2FeO6,-2.642158604791667
mp-770686,Li3MnAl2O6,-2.702623713994253
mp-770693,Li3MnAl2O6,-2.70035396378592
mp-850293,Al2H16S3O20,-1.733098063902439
mp-1228003,Ca3Al2(SiO6)2,-2.883534802368421
mp-1216157,Y6Al2SiS14,-1.937352582972827
mp-1225400,Dy6Al2SiS14,-1.976387801521736
mp-2218061,MgAl2(CoO3)2,-2.463928974090909
mp-1019535,BaAl2(SiO4)2,-3.449646577692308
mp-560765,Rb4Nb35Al2O70,-2.8812530336936932
mp-2217584,MgAl2(CoO3)2,-2.429315749545454
mp-2217789,MgAl2(CoO3)2,-2.458072668636363
mp-2217878,MgMn2Al2O6,-2.765682159169279
mp-2217896,MgMn2Al2O6,-2.710686266442006
mp-578650,Na3Nb34Al2O64,-2.832085878001338
mp-1191489,CaAl2(OF)4,-2.759794697272727
mp-1194510,Al2Si2PbO8,-3.104508352115384
mp-1203850,Ca3Al2SO16,-1.628436023068181
mp-1205386,SrAl2(SiO4)2,-3.441296365961538
mp-1210718,MgAl2SiO7,-2.828062361136363
mp-1211755,KAl2Si4O11,-3.07575624234722
mp-1211834,KAl2(SiO3)4,-3.105510069592104
mp-1214005,CaAl2(SiO3)4,-3.170725262105263
mp-1214928,Al2P2NO8,-2.4535991360989
mp-1227927,CaAl2(Si2O7)2,-2.831129899642857
mp-1249297,SrAl2(SiO4)2,-2.739613414807692
mp-17979,BaAl2(SiO4)2,-3.452259155961539
mp-556178,BaAl2(GeO4)2,-2.900718550961538
mp-643346,Al2Ge(HO3)2,-2.485961266590909
mp-645842,SrAl2(SiO4)2,-2.720861810192307
mp-657543,SrAl2(SiO4)2,-2.684296245961538
mp-707040,CaAl2H16N9,-0.434236699107143
mp-734097,CaAl2(OF3)2,-3.292138899090909
mp-560217,K2Al2B2O7,-2.991123102910255
mp-1225482,LaCeAl2O6,-3.666197123499999
mp-12885,BaAl2Sb2O7,-2.768880493749999
mp-15939,SrAl2B2O7,-3.263411640277777
mp-9844,BaAl2B2O7,-3.252279562777777
mp-1216715,TiNb3(AlC)2,-0.564487655416668
mp-1217049,TiAl2Cr3C2,-0.30025425791666605
mp-1217102,Ti3Nb(AlC)2,-0.661434597500001
mp-1235196,LiAl2(CuO3)2,-2.036577136666666
mp-1235624,LiAl2(CuO3)2,-2.06092544030303
mp-1236720,LiLu2Al2O6,-3.304347972424243
mp-2215789,MgAl2(CuO3)2,-2.256160088636365
mp-2215794,MgAl2(CuO3)2,-2.184180170454545
mp-740731,Al2H12(SeO5)3,-1.543508009125976
mp-1228975,Al2Cr3CuS8,-1.1090711564285711
mp-554041,Na2Al2B2O7,-2.946624387391688
mp-1217141,Ti4Al2CN,-0.9775170341666671
mp-1222591,Li3Al2CoO6,-2.610836774166667
mp-1227986,BaAl2(SiO4)2,-3.434464781538461
mp-554959,K2Al2Sb2O7,-2.53295952226923
mp-556275,Rb2Al2Sb2O7,-2.527796269230769
mp-557359,Cs2Al2Sb2O7,-2.513358363408488
mp-1218484,SrAl2(SiO4)2,-3.442896293461538
mp-1227323,CaAl2(SiO4)2,-3.426420772692307
mp-1228949,Al2CrFeCo4,-0.29205683999999904
mp-557689,CaAl2B2O7,-3.267489926111109
mp-558669,SrAl2B2O7,-3.264373068194444
mp-23995,Al2P3(HO3)3,-2.448946845745798
mp-1228625,BaAl2Si3O14,-2.412429104999999
mp-1182812,CaAl2(SiO5)2,-2.5757864303333333
mp-1198051,K2Al2Si2O9,-2.834913102966667
mp-1252396,Ca2Al2SiO7,-3.290082330416666
mp-559224,Sr3Al2Cl2O5,-3.302407071875
mp-653569,Al2P2O11F,-1.978369155267857
mp-677549,Ca2Al2SiO7,-3.154832765416666
mp-1207402,Zr6Al2FeH10,-0.508587749342105
mp-24670,Zr6Al2CoH10,-0.5254924575000001
mp-697624,Zr6Al2NiH10,-0.536770165131579
mp-707424,Al2H12(SeO5)3,-1.610846598657227
mp-6030,Be3Al2(SiO3)6,-3.267593778275862
mp-727940,Be3Al2Si6O19,-3.079922909666666
mp-1106116,LiAl2BrO6,-1.758999362833333
mp-559325,Ba7Sc6Al2O19,-3.522185413235294
mp-555730,Na2Ca3Al2F14,-3.878097448940887
mp-1196041,Al2H32S3O28,-1.5678861953461531
mp-1197991,Al2Fe(PO8)2,-1.331407750442177
mp-1199831,Na9Al2(H9O7)3,-1.595808440019725
mp-1210628,MgAl2SiO7,-2.8287118259090898
mp-1227479,CaAl2(SiO4)2,-3.407741476538461
mp-1227551,CaAl2Si4O15,-2.454156967954545
mp-1227812,CaAl2Si4O15,-2.453526168181818
mp-1228563,Al2Si2PbO8,-3.098730219615384
mp-560387,Cs2Al2P2O9,-2.991625041573072
mp-6532,CaAl2(SiO4)2,-3.425678822596153
mp-726645,BaAl2(PO5)2,-2.898380499285714
mp-756574,Li3Al2VO6,-2.819839735
mp-758658,CaAl2(SiO4)2,-3.424325745961538
mp-772241,Li3MnAl2O6,-2.730759716702587
mp-772435,Li3Al2FeO6,-2.6674668125
mp-557743,KCaAl2F9,-3.8587544829935903
mp-1222720,Li2Al2SiO6,-3.141805308787879
mp-2226987,MgAl2(CuO2)4,-1.455615920999999
mp-1223030,LaCeAl2O6,-3.6599455985000002
mp-989399,Ca6Al2NF,-0.964665896999999
mp-505538,Ti3Al2NiC,-0.6787004642857141
mp-510486,Ta3Al2CoC,-0.5666687724285701
mp-542028,Ti3Al2NiN,-1.005304405
mp-542029,Ti3Al2NiO,-0.947422548928571
mp-555507,Sr10Al2ClF25,-4.103373948026316
mp-1196242,Dy3Al2(Ni2H3)3,-0.468855713062499
mp-1199765,Gd3Al2(Ni2H3)3,-0.4603828520625
mp-1201730,Er3Al2Ni6H7,-0.528588147430554
mp-1202694,Y3Al2(Ni2H3)3,-0.45908800181249904
mp-1204639,Sm3Al2(Ni2H3)3,-0.432234306812499
mp-1020161,Na3Al2(PO4)3,-2.8522529167783253
mp-1154457,Al2Cu3(SiO4)3,-2.440744174124999
mp-1157674,Al2Si3(NiO4)3,-2.5965353739999992
mp-1163929,Al2Si3(SnO4)3,-2.645415585875
mp-1163942,Al2V3(SiO4)3,-2.888095515374999
mp-1211470,Mn3Al2(GeO4)3,-2.453935854689654
mp-1214222,Ca3Al2(GeO4)3,-2.95279270175
mp-1214967,Al2Cd3(GeO4)3,-2.271887525875
mp-1328088,Al2Si3(WO4)3,-2.078165301624999
mp-1364177,Al2Cr3(SiO4)3,-2.851237027624999
mp-1364639,Ti3Al2(SiO4)3,-2.9996412726250012
mp-14047,Al2Cd3(SiO4)3,-2.75354748925
mp-14048,Sr3Al2(SiO4)3,-3.346113002874999
mp-14049,Ba3Al2(SiO4)3,-3.15571533125
mp-23882,Ca3Al2(HO)12,-2.088920861465517
mp-24126,Sr3Al2(HO)12,-2.091195201551723
mp-6008,Ca3Al2(SiO4)3,-3.445631944374999
mp-6073,Mg3Al2(SiO4)3,-3.253374418499999
mp-6172,Al2Fe3(SiO4)3,-2.784980043750001
mp-6186,Al2Co3(SiO4)3,-2.6870843805
mp-6480,Mn3Al2(SiO4)3,-2.9556334624396543
mp-6711,Na3Li3Al2F12,-3.4596479185
mp-1215985,YErAl2O6,-3.736692522499999
mp-1226826,Ce2Al2PdPt,-0.8783218491666651
mp-1198493,Ca2Al2(SiO4)3,-3.124784921052631
mp-1197125,K3Al2(AsO4)3,-2.3430949453375
mp-1199100,Al2Tl3(PO4)3,-2.62586793782143
mp-560629,K3Al2(PO4)3,-2.937700390033927
mp-560459,Rb3Al2(PO4)3,-2.932643588821427
mp-1228417,Ba6Al2Rh4O15,-2.365290217222222
mp-1228929,Al2CrB2Mo,-0.37752296648550904
mp-1182213,CaAl2(SiO6)2,-2.317959178088235
mp-1199448,CaAl2(SiO6)2,-2.212379564264705
mp-1202111,CaAl2(Si3O10)2,-2.5842578891379313
mp-1203968,CaAl2(Si2O7)3,-2.224936042166666
mp-1218879,Sr2Al2SiO7,-3.472123711666666
mp-1222223,Mg2Al2SiO9,-2.548030591785715
mp-1227499,Ca2Al2SiO7,-3.464139528749999
mp-1229318,Al2H30Se3O28,-1.3736454496750992
mp-556036,Ba3Al2Cu2F16,-3.484928174130434
mp-605108,Al2P3H11O13,-1.9370855738854682
mp-734142,Al2Si3(HO4)3,-2.4286182105625
mp-1019744,K2Al2Si3O10,-3.190578273205883
mp-1196415,Li2Al2(SiO4)3,-2.654181839824561
mp-1196501,Al2Si3(NO5)2,-1.995839814411764
mp-1196695,Na2Al2(SiO4)3,-2.620473579618875
mp-1196701,Na2Al2Si3O14,-2.231916227750409
mp-1199876,K2Al2(SiO4)3,-2.624882469447368
mp-1201495,Cs2Al2Si3O10,-3.207796784371195
mp-1202442,Na2Al2Si3O14,-2.283193923464695
mp-1204609,Na2Al2Si3O14,-2.304352385607552
mp-1221477,Na2Al2Si3O10,-3.117025463103449
mp-1221522,Na2Al2(GeO4)3,-2.042790819092559
mp-975622,Rb2Al2Si3O10,-3.199159940294118
mp-1229034,Al2Co3GeO8,-2.175519381071428
mp-1236221,LiAl2V4O8,-2.08157172888889
mp-1236333,LiAl2(HO2)2,-2.273904241759259
mp-554206,Cs2Al2As2O7,-2.500848698408488
mp-1019586,CaAl2SiO6,-3.4282218700000002
mp-1020141,Na2Al2Si3O10,-3.128102243397567
mp-1201693,CaAl2(Si2O7)2,-2.824890803571427
mp-1223739,K2Al2B2O7,-2.990593372397436
mp-1228479,Al2Zn(SeS)2,-1.191555289955357
mp-1228998,Al2Ga(PO4)3,-2.932562292857142
mp-1252320,Ba3Al2(Sb2O7)3,-2.31914127734375
mp-1276783,Li2Al2FeO6,-2.551339960378788
mp-1360762,Ba3Al2(Sb2O7)3,-2.282004813281249
mp-556676,Na3Al2(AsO4)3,-2.304288524956897
mp-768173,Li2Al2FeO6,-2.557758117424242
mp-1214864,Al2Ga2Bi2O9,-2.468417401666667
mp-1228996,Al2Ga2Bi2O9,-2.455854702000001
mp-1229026,Al2Fe2Bi2O9,-2.26110121
mp-1229040,Al2Fe2Bi2O9,-2.232265484666667
mp-1204499,BaAl2(SiO5)2,-2.637705861916666
mp-1215931,YAl2BN4,-1.1449758234375
mp-1219968,Pr2Al2CuNi,-0.417233226666665
mp-1226694,CeY(AlPd)2,-0.858927258333333
mp-1228455,Al2Zn(SeS)2,-1.148205004241071
mp-1196891,Ca2Al2Sn2O9,-2.955365727833334
mp-561246,Al2Si2Pb2O9,-2.874237976666667
mp-866314,Ca5Al2(SiN4)2,-1.381626434117646
mp-572634,Al2AgCl5O,-2.005386624351851
mp-706302,Al2P2H4O11,-2.210444462067669
mp-1195111,BaAl2C2O11,-1.7878701181249999
mp-1198485,Al2PbC2O11,-1.509601261874999
mp-1199198,Al2B3HO8,-2.916216542232143
mp-1200775,Al2Si2PbO10,-2.431208374000001
mp-1209060,SrAl2C2O11,-1.792674007031249
mp-555644,Al2Tl3(PO4)3,-2.620962842821428
mp-561437,Al2Ge(O2F)2,-3.1719766036111112
mp-6280,Al2Si(O2F)2,-3.5297768330555552
mp-1180582,LiAl2BrO6,-1.626439001333332
mp-1192758,CaAl2(SiO5)2,-2.4293854466666662
mp-1194309,CaAl2(SiO5)2,-2.708402973333334
mp-1229169,CaAl2(Si8O19)2,-3.060069858070174
mp-770689,Li2MnAl2O6,-2.679661604963427
mp-1198093,Al2Fe(SiO5)2,-2.5403169678333333
mp-1204710,MnAl2(SiO5)2,-2.646264993028736
mp-1213128,MnAl2SiO5,-2.5442214661590032
mp-1213240,MgAl2SiO5,-2.695030973888889
mp-1215154,Al2FeSiO5,-2.420527922916666
mp-1104738,MgAl2(OF4)2,-2.8987042911538463
mp-1197130,CaAl2(Si3O10)2,-2.588080817586207
mp-1201995,CaAl2(Si3O10)2,-2.4060696791379312
mp-1105589,Al2Si2H4O9,-2.5936799323529423
mp-1183270,Al2Si2H4O9,-2.6068684623529412
mp-1197555,CaAl2(Si2O7)2,-2.825470883571427
mp-1226589,CeNdAl2O6,-3.6487381167499997
mp-1235056,LiAl2(HO2)2,-2.242225773981482
mp-2218439,MgNb2Al2O8,-2.976336549615384
mp-1019587,CaAl2SiO6,-3.3941309285
mp-1183008,Al2Si2H4O9,-2.248069259117648
mp-1195158,CaAl2Si3O10,-3.324810085625
mp-1196952,CaAl2Si3O13,-2.522524667105264
mp-1198588,Al2Si2H4O9,-2.609140709411765
mp-1202125,CaAl2Si3O13,-2.418985317894736
mp-1202493,CaAl2Si3O13,-2.544023431052632
mp-1214062,CaAl2(SiO4)3,-2.767253435277778
mp-1221428,Na2Al2B2O7,-2.9465730793147653
mp-1222232,MgAl2(PO4)3,-2.928723082162698
mp-1255429,Ca6Mn3Al2O15,-2.80713734668435
mp-2715240,Na3Al2(PO4)3,-2.878547422903324
mp-2715262,Na3Al2(PO4)3,-2.878710459069992
mp-2931674,CaAl2Si3O13,-2.473906355526314
mp-698132,Al2Si2H4O9,-2.608322255000001
mp-720262,Al2Si2H4O9,-1.960501265294118
mp-721216,Al2Si2H4O9,-2.611352560588236
mp-1173760,Na2Al2Si3(HO3)4,-2.22598939511994
mp-1173828,Na2Al2Si3(HO3)4,-1.995350880772114
mp-1173860,Na2Al2Si3(HO3)4,-2.67446673685907
mp-1190535,Li2Al2Si4HO14,-2.73495010164855
mp-1190556,Li2Al2Si4HO14,-2.730473320344202
mp-1218409,SrCaAl2(SiN3)2,-1.4492687850000001
mp-1222822,Li2Al2P2O9F,-2.926043697872024
mp-1227468,Ca2MgAl2(SiO4)3,-3.37981357025
mp-1227598,Ca4MgAl2Si3O14,-3.407465906458332
mp-1233037,CaTb4Al2(FeO6)2,-3.13735069126984
mp-1233298,Tb4MgAl2(FeO6)2,-3.152596149126984
mp-1233326,CaTb4Al2(FeO6)2,-3.121462694603174
mp-1233341,Tb4MgAl2(FeO6)2,-3.14698472531746
mp-1233567,Ba2MgAl2(Fe4O7)2,-1.9898710864814801
mp-1233783,Tb4MgAl2(FeO6)2,-3.165130740555555
mp-1234250,Ba2CaAl2(Fe4O7)2,-1.984268626666666
mp-1234545,Ba2MgAl2(Fe4O7)2,-2.00234575685185
mp-1235259,LiTb4Al2(FeO6)2,-3.142954669523809
mp-1235267,LiTb4Al2(FeO6)2,-3.090820435714285
mp-1235374,SrLiAl2B2O7,-2.932774057435897
mp-1235570,LiTb4Al2(FeO6)2,-3.136633114761904
mp-1236305,LiTb4Al2(FeO6)2,-3.081251449047619
mp-1247585,SrCa7Mn6Al2O20,-2.713011455974617
mp-1247597,Sr2Ca14Mn14Al2O47,-2.569568167228284
mp-1247617,SrCa7Mn6Al2O22,-2.691647024739111
mp-1247643,Sr2Ca14Mn14Al2O43,-2.602520119347126
mp-1247679,SrCa7Mn6Al2O21,-2.70979872000233
mp-1247705,SrCa7Mn6Al2O23,-2.66668894846375
mp-1247712,SrCa7Mn6Al2O20,-2.740433175766284
mp-1247716,Sr2Ca14Mn14Al2O41,-2.6099597113840343
mp-1247722,Sr2Ca14Mn14Al2O45,-2.5863156888446053
mp-1257731,Na2Al2Si3(HO3)4,-2.096545420772114
mp-1371750,Ca4Al2H22CO20,0.07116863035714201
mp-2712836,Al2SiSn2S5O24,-2.172949801397059
mp-2712925,Al2SiGe2S5O24,-2.148773969436275
mp-2712949,Ti2Al2SiS5O24,-2.470284296887256
mp-2712951,Hf2Al2SiS5O24,-2.5680372366911772
mp-2713096,Zr2Al2SiS5O24,-2.527900512279412
mp-677670,Na2Al2Si3(HO3)4,-1.945295568163418
mp-684868,Na2Al2Si3(HO3)4,-2.083152839250375
mp-691091,Na2Al2Si3(HO3)4,-2.076047775772114
mp-699405,Ca6Mg5Al2Si11O36,-3.355220556750001
mp-707897,Ca4Al2H22CO20,-1.90793294739796
mp-720655,Na4Al2Si6ClO24,-1.7476833987977631
mp-729544,Ca4Al2H22CO20,3.161448555867347
mp-762521,LiMn3Al2(HO2)6,-2.027339646234435
mp-1196208,Ca2Al2FeSi3O13,-3.076116905476191
mp-1227903,Ca2MnAl2Si3O13,-3.122099409901476
mp-1228303,Ca2Al2FeSi3O13,-2.808100159761905
mp-1214260,Ca2MgAl2Si3O14,-2.911845012045453
mp-1235105,LiSc2Al2(CO)2,-1.036695317037037
mp-1235805,LiSc2Al2(CO)2,-0.9175119414814811
mp-690617,LiMn3Al2(HO2)6,-2.048751003942768
mp-706640,CaAl2Si4(H2O7)2,-2.5941466886
mp-1227593,Ca2Al2Si(HO4)2,-3.040782182833308
mp-1211139,NaAl2H8(ClO2)4,-0.442499694407796
mp-557200,K4Nb11Al2O20F,-2.754130073263158
mp-1197319,Al2Bi7Ru(BrCl4)2,-1.107761786000001
mp-1199626,Sr3Al2P(O2F5)2,-3.686294446607143
mp-1204779,Al2Bi7Ru(BrCl4)2,-1.107442780000001
mp-1229226,Al2CuSi2O8F,-2.85457408125
mp-23819,Al2P2H9NO11,-2.034194627921429
mp-541870,KAl2P2H5O11,-2.413148885846938
mp-559610,Rb2NaAl2(PO4)3,-2.924352074765393
mp-648140,Na2Al2S3(Cl4O3)2,-1.849346655369457
mp-694940,MnAl2Sb2(PO4)6,-2.6317828600225193
mp-863005,Ca2Al2Si6SnO22,-2.551519462424242
mp-1235957,SrLiAl2B2O7,-2.817960218974359
mp-1221856,MnAl2Sb2(PO4)6,-2.635590132736805
mp-1198254,Ca3Al2S(OF)8,-2.742922414204545
mp-1202430,Al2H15SClO13,-1.689608970820312
mp-1204067,Al2CoP3NO14,-1.928511836139455
mp-1210694,MgAl2SiHO7,-2.846523528229166
mp-1211839,KAl2Si4(HO6)2,-2.8386810930833333
mp-1211858,KAl2NiP3O14,-2.37348578910374
mp-1214705,Ba2MnAl2CuF14,-3.542384862146551
mp-1214777,Ba2MnAl2CoF14,-3.574526734396551
mp-1215028,Al2P3H12(NO4)3,-1.850195669810267
mp-540862,Ba2CaMgAl2F14,-4.041768984500001
mp-1223112,La3Al2Ga3SnO14,-3.080299642717392
mp-556858,Al2P3H9(CO3)3,-1.689177525103021
mp-1227373,CaAl2Si2(ClO4)2,-2.746442369999999
mp-1235321,LiSc2Al2(CO)2,-1.5529142792592592
mp-1236075,LiSc2Al2(CO)2,-1.368450672592592
mp-1236668,LiSc2Al2(CO)2,-1.572057824814814
mp-1227091,Ca4UAl2(SiO5)3,-3.295131267799999
mp-1195160,Al2Cu2Bi2S3Cl8,-1.349249576911765
mp-1214647,BaAl2Si3(W2O5)2,-1.419227915
mp-1222250,Mg4Al2H12CO18,-1.790973903513514
mp-1199231,Al2Si2H8N2O9,-1.867056463043478
mp-1215070,CaAl2Si2(WO4)2,-2.146714630666666
mp-1215089,Al2P2H6NO11,-1.894234500876623
mp-1256014,KAl2P2H4O11,-2.375107204826785
mp-554390,SrAl2SiN2O3,-2.621499915277779
mp-730945,KAl2P2H5O11,-2.411888247751699
mp-758536,KAl2P2H4O11,-2.355682478951786
mp-9512,SrAl2P2(O4F)2,-3.334375912285714
mp-1194539,Al2Ag2Bi2S3Cl8,-1.3475888879901952
mp-1210148,NaBe3Al2Si6O19,-3.089673408431591
mp-1214221,Be3Al2Si6HO18,-3.082550168541667
mp-1097038,LiAl2H6BrO6,-2.051382473489583
mp-643655,LiAl2H6ClO6,-2.080809645989584
mp-1214492,Ba5Tm2ZrAl2O13,-3.505004390434783
mp-1214494,Ba5Y2ZrAl2O13,-3.463636371304349
mp-1214508,Ba5Ho2ZrAl2O13,-3.4841228045652173
mp-1214525,Ba5Gd2ZrAl2O13,-3.440172720217391
mp-1214534,Ba5Lu2ZrAl2O13,-3.517275125797103
mp-558566,Ba5Er2ZrAl2O13,-3.494424863043479
mp-1183004,Al2FeP2(HO)18,-1.7342456768728232
mp-1194615,CaAl2H12(CO7)2,-1.9032879191935481
mp-1197917,BaAl2H10C2O13,-1.9656046983035722
mp-1199432,Al2FeP2(HO)18,-1.8139541588240422
mp-1203129,MgAl2As2(HO)18,-1.7082578805487811
mp-1212408,MnAl2P2(H5O4)4,-1.621071543956505
mp-1219317,Sm2Mn2Al2Fe13C,-0.057857370043102006
mp-1227000,Cs2ZrAl2(MoO4)6,-2.406531335694582
mp-1238408,BaAl2H10C2O13,-1.5679951577678581
mp-1238482,MnAl2P2(H5O4)4,-1.5072284195662622
mp-1238545,Al2FeP2(HO)18,-1.515774329311847
mp-24505,MgAl2P2(HO)18,-1.896250717482578
mp-504975,MnAl2P2(HO)18,-1.8392814165784572
mp-677029,Ca2MgAl2(SiO4)3,-3.389171477250001
mp-680477,Al2RhC4Cl7O4,-1.413871529166667
mp-707875,Mn9Al2Si8(HO4)8,-2.5205931132437183
mp-757927,LiMn3Al2(HO2)6,-2.026243682276101
mp-758231,LiMn3Al2(HO2)6,-2.024242455401101
mp-758328,LiMn3Al2(HO2)6,-2.023458611026101
mp-758339,LiMn3Al2(HO2)6,-2.027128370401101
mp-758346,LiMn3Al2(HO2)6,-2.030797451859434
mp-758348,LiMn3Al2(HO2)6,-2.009896588109435
mp-758686,LiMn3Al2(HO2)6,-2.030813264567768
mp-758733,LiMn3Al2(HO2)6,-2.025736649151101
mp-759189,MnAl2P2(HO)18,-1.838858656822359
mp-1173868,Na12Mg5Al2Si29O72,-3.065595974179598
mp-1197829,KAl2P2H9O13,-2.154679217140212
mp-24603,CaAl2Si2(H2O5)2,-2.728540174736842
mp-1019531,BaAl2Si3(NO)4,-2.382469394285714
mp-686540,Na3Al2P2O8F3,-3.073663639634647
mp-1228344,Ba6Ho2Al2Rh2O15,-2.937138739074074
mp-1247607,SrCa7Mn6Al2O22,-2.600005874147005
mp-1247646,SrCa7Mn6Al2O21,-2.599727410069897
mp-1247693,SrCa7Mn6Al2O23,-2.625526360066314
mp-1173790,Na4MgAl2(Si3O8)3,-3.096626491762932
mp-1214127,CaAl2Si6H10O21,-2.562285500437501
mp-1215045,CaAl2Si2(WO2)4,-1.360400835294117
mp-1222973,Mg2Al2SiH4O9,-2.669438583611112
mp-1229132,Ba3Al2Ga2(FeO6)2,-2.708888433095238
mp-706243,Al2Si3H8(NO5)2,-2.198597497500001
mp-1222249,MgAl2P3NO12,-2.497589914943609
mp-686748,Ca2Al2Si(HO4)2,-3.040449417333333
mp-1218422,Sr5CaAl2(O4F)2,-3.4315412877777782
mp-1173798,Na2Al2Si3(HO3)4,-2.68454943838081
mp-1183012,Al2Si3H8(NO5)2,-2.1931451298
mp-1201953,Ba3Al2B10H4O23,-2.846680474087301
mp-1210489,Na2Al2Si3(HO5)2,-2.568087737118875
mp-1212051,K2Al2Si3(HO5)2,-2.611430327736842
mp-510599,Na2Al2Si3(HO3)4,-2.12729306338081
mp-1214076,CaAl2Si4(HO6)2,-2.78969154297619
mp-1235389,SrLiAl2B2O7,-2.927647195897435
mp-676467,Na3Al2P2O8F3,-3.066307082412425
mp-1203514,KNaAl2As2O9,-2.448242912741954
mp-1208735,SrAl2H6C2O11,-2.169323114318181
mp-1215072,Al2HPb(CO5)2,-1.601087113828125
mp-505288,CaAl2Si2(H2O5)2,-2.726446039210527
mp-557084,Al2CuSi2O7F2,-3.088115564285714
mp-1214006,CaAl2Si2HO9,-2.67893045175
mp-1214270,Ca4Be2Al2Si9O28,-3.249094270444444
mp-1248272,CaAl2Si2(H2O5)2,-2.577692876842105
mp-699257,CaAl2Si2(H2O5)2,-2.556412844736842
mp-733653,CaAl2Si2(H2O5)2,-2.724018262368422
mp-1214101,CaAl2Si6(HO4)4,-2.480625461034482
mp-677482,LaAl2Si5N9O,-1.4820420044444451
mp-1217237,Ti2Al2CrCuS8,-1.308193769047618
mp-1222897,Li2Al2CrSbO8,-2.68714821904762
mp-1227752,CaAl2Si4(ClO4)3,-2.735797303863637
mp-643941,CaAl2Si(HO2)4,-2.6231631634375
mp-1173733,Na2Al2Si3(HO3)4,-2.668527604902549
mp-1194858,CaAl2Si3(HO3)4,-2.812427981136363
mp-1198111,Al2Si2CNO10,-2.021481531250001
mp-1199031,Na2Al2Si3H6O13,-2.475800012509947
mp-1202683,CaAl2Si3H6O13,-2.623302911899999
mp-1203998,CaAl2Si3H6O13,-2.6189274673
mp-1214322,CaAl2Si3W3O10,-1.9013006855263161
mp-2713603,Na2Al2P2SO12,-2.719333332958474
mp-2713629,Na2Al2Si(SO6)2,-2.5405308473381742
mp-2714395,NaAl2P(SO6)2,-2.554980401630862
mp-2714483,Na4Al2Si2SO12,-2.7115763826833623
mp-2714518,Na4Al2Si(PO6)2,-2.87050337800649
mp-707746,CaAl2Si3H6O13,-2.6299011555
mp-759118,LiMn3Al2(HO2)6,-2.048430484984434
mp-1173187,SrHo31Al2Si14N13O59,-3.049412681708332
mp-1233331,MgAl2H4Pb2(O2F3)2,-2.400362117894736
mp-1233713,CaAl2H4Pb2(O2F3)2,-2.495486701315789
mp-1234148,MgAl2Ga2Cu4(AsO5)4,-1.87324843909091
mp-1234616,MgAl2Ga2Cu4(AsO5)4,-1.892293579090909