material_id,formula,formation_energy_per_atom
mp-863670,Pm2CuRh,-0.477929416249999
mp-863671,Pm2CuRu,-0.21793904000000003
mp-863676,Pm2CuSn,-0.47064870875000103
mp-864623,ZnCuAu2,-0.14657338749999801
mp-864661,ZnCuPd2,-0.40425254999999904
mp-864805,Nd2CuIr,-0.48188325083333006
mp-864837,Nd2CuRu,-0.17880408390624303
mp-864897,Zr2CuOs,-0.34157464749999905
mp-864939,Hf2CuIr,-0.575825659999997
mp-864946,MnCuPd2,-0.223007231982759
mp-864959,Dy2CuOs,-0.31250953749999805
mp-864960,Dy2CuRh,-0.55877168833333
mp-864963,Dy2CuIr,-0.5949425783333301
mp-864974,Hf2CuOs,-0.42781410749999704
mp-865147,Be2CuRu,-0.248225409999999
mp-865220,Dy2CuRu,-0.333347355833331
mp-865306,Tm2CuOs,-0.38454446000000003
mp-865307,Tm2CuIr,-0.6633023075000001
mp-865308,Be2CuRh,-0.422358172499999
mp-865317,Tm2CuPt,-0.8823360549999961
mp-865319,Tm2CuRu,-0.403783090000001
mp-865420,Lu2CuTc,-0.223477141833324
mp-865470,Ac2CuSn,-0.37453171624999704
mp-865547,Pm2CuSi,-0.41108536499999804
mp-865587,Y2CuRh,-0.5259974874999981
mp-865588,Y2CuRu,-0.29852865250000005
mp-865594,Y2CuIr,-0.558921177499999
mp-865595,Lu2CuRu,-0.437005078333332
mp-865829,Lu2CuIr,-0.6976692708333331
mp-865830,Lu2CuOs,-0.36470152333333206
mp-865845,Yb2CuIr,-0.765896454999996
mp-865847,Lu2CuPt,-0.904321140833332
mp-865854,Yb2CuRh,-0.6851331925
mp-865869,Be2CuPt,-0.459643522500002
mp-866100,Er2CuOs,-0.31001672749999903
mp-867117,Sc2CuPt,-0.7990680525
mp-867122,Ac2CuSi,-0.27116471749999904
mp-867273,Be2CuIr,-0.39975566500000004
mp-867283,Ho2CuRu,-0.35695308999999603
mp-867284,Ho2CuRh,-0.575543087499995
mp-867308,InCuPd2,-0.40447349000000005
mp-867753,CuSbRh2,-0.29537934250000203
mp-867756,Sc2CuAu,-0.543753020000001
mp-867771,TaCuRh2,-0.48641174683333305
mp-867794,Sc2CuIr,-0.7032989375
mp-867802,Sc2CuOs,-0.40887275999999806
mp-867887,Sm2CuIr,-0.5488407323611101
mp-867895,Sm2CuRu,-0.24162951874999902
mp-867917,CuGeRh2,-0.39096948999999903
mp-971738,ZnCuNi2,-0.12022703749999901
mp-971739,ZnCuPt2,-0.359896827499998
mp-971827,Zn2CuPt,-0.3436161775
mp-971982,Tm2ZnCu,-0.308457102500002
mp-972217,Ti2CuTc,-0.33271794583333203
mp-973133,ScCuPd2,-0.630324856249998
mp-973662,Lu2ZnCu,-0.322767533333335
mp-973788,Ho2CuTc,-0.137742335098682
mp-973951,Lu2CuRh,-0.6878928658333301
mp-973996,Lu2GaCu,-0.44544078770833506
mp-977567,Hf2CuRe,-0.29158919062500005
mp-977593,Tm2CuTc,-0.17863062303728203
mp-978523,Sc2ZnCu,-0.31778599500000004
mp-978532,CuSiRh2,-0.567489621249997
mp-979043,Tm2CoCu,-0.238332755000003
mp-979044,Tm2CuAu,-0.582019662500003
mp-979045,Tm2CuPd,-0.6310741000000021
mp-979910,VCuRh2,-0.32207532249999804
mp-980665,Zn2CuIr,-0.16376387249999702
mp-983410,Ho2CuPd,-0.602262679999999
mp-983583,Er2ZnCu,-0.303155337499998
mp-1212041,In2CuS4,-0.5648328573586361
mp-14025,Zr2CuS4,-1.5954547421428562
mp-15065,Cu(IrS2)2,-0.47733921589285605
mp-15613,Cu(RhS2)2,-0.5615106980357121
mp-15614,Cu(RhSe2)2,-0.48147113589285606
mp-22625,Cr2CuTe4,-0.45779294309523705
mp-22803,Cr2CuS4,-0.9210871042857111
mp-34146,Co2CuO4,-1.148951794285714
mp-3880,Cr2CuSe4,-0.7528170849107121
mp-3925,Co2CuS4,-0.5034428230357141
mp-3951,Ti2CuS4,-1.437793791666667
mp-4409,Cu(RhO2)2,-1.049898804285713
mp-504573,Cr2CuO4,-1.9373669635714301
mp-505421,Mn2CuO4,-1.665176083694581
mp-5178,V2CuS4,-1.042791715
mp-753397,Ga2CuO4,-1.8143320492857131
mp-756271,Cu(NiO2)2,-0.979728519285714
mp-770107,Fe2CuO4,-1.407231362142857
mp-1216173,Y2In3Cu,-0.49773862810185404
mp-1216820,U2CuSi3,-0.35504543679167405
mp-1216928,Tm4CuGe8,-0.555062954615386
mp-1216947,U2Ga3Cu,-0.13261759041666402
mp-1217130,Ti2CuNi,-0.20872254916666602
mp-1217738,Tb2In3Cu,-0.504401664652775
mp-1219137,Sm2Ga3Cu,-0.660313028333334
mp-1219337,Sm4CuSn8,-0.578134486923078
mp-1219341,Sm2In3Cu,-0.5234985892592571
mp-1219423,Sc2Ga3Cu,-0.5917329583333311
mp-1219609,RbCuS3,-0.41843914999999904
mp-1219909,Pr2In3Cu,-0.5242585350034781
mp-1220617,Nd2In3Cu,-0.530469927972234
mp-1222658,Lu4CuGe8,-0.527256327435897
mp-1223513,KCuS3,-0.44332230594999805
mp-1224354,Hf4CuSi3,-0.656177658749999
mp-1225653,Dy2In3Cu,0.087410185555555
mp-1225706,CuSi2P3,0.12571065476305102
mp-1225735,CuGe2P3,0.22979542865079303
mp-1225787,Eu2In3Cu,-0.344819411666667
mp-1225862,Er4CuGe8,-0.5698908015384611
mp-1227288,Ce2In3Cu,-0.39033688600000005
mp-2977,CuAgTe2,-0.024186624687494003
mp-532289,Ta2CuO6,-2.7699236128101843
mp-1217701,Tb2CuPt,-0.8651014599999981
mp-1219332,Sm3CuSe6,-1.6991670461875001
mp-1225646,Dy3CuSe6,-1.642178323736069
mp-2724538,LiCuS,-0.878669020277776
mp-640926,Cu(NO3)2,-0.8002404886111111
mp-676117,Li2CuGe,-0.31139316916666604
mp-752895,Li3CuF4,-2.632011330625
mp-861189,LiCuS,-0.830338955277776
mp-996956,CuHO2,-0.991084209062499
mp-997044,CuO2F,-0.8569704487499991
mp-1100815,ZnCuAs,-0.001164133333333
mp-1105229,GaCuO2,-1.52300860125
mp-1181633,CuClO,-0.817016257083333
mp-1197254,CaCuGe,-0.509767221944444
mp-1245520,CuGeN2,0.130761764999999
mp-1245539,VCuN2,-0.537652815937498
mp-676828,ZnCuAs,0.006423117499999
mp-759234,Li3CuF6,-2.606958706
mp-1181801,CuSnO6,-0.468636013749999
mp-1226752,CeMn10Cu,0.107534185890803
mp-1077811,CuAgS,-0.15457512815972202
mp-12268,BaCuF4,-2.998206198333333
mp-1246877,CuGe2N3,-0.054199450000001
mp-1247244,CuSi2N3,-0.9027580027777761
mp-505105,Cu(HO)2,-1.047266705499999
mp-673846,La2CuO4,-2.9646158373809532
mp-753342,LiCuF4,-2.070476225777781
mp-754549,Na2CuO2,-1.329767022551723
mp-754718,NaCuO2,-1.263419292844827
mp-996999,CuHO2,-0.9573725215624991
mp-1022050,Mg6GaCu,0.019951385312499
mp-1022056,Mg6CuBi,0.043662345625
mp-1022058,Mg6CuBi,0.025366177500000003
mp-1022063,Mg6CuSb,-0.030738632499999002
mp-1022064,Mg6CrCu,0.18441620250000001
mp-1022069,Mg6NbCu,0.210223134375
mp-1022070,Mg6CuMo,0.25569518562500004
mp-1022074,HfMg6Cu,0.142392846875
mp-1022075,HfMg6Cu,0.128115035624999
mp-1022076,Mg6CdCu,0.026255501249999
mp-1022078,Mg6NbCu,0.193210148125
mp-1022079,Mg6CdCu,0.026407253749999002
mp-1022083,Mg6CuSb,-0.015456729374999001
mp-1022085,Mg6CuB,0.33938014718749904
mp-1022086,Mg6GaCu,0.0177946490625
mp-1022089,Mg6CuSi,0.10354848750000001
mp-1022090,NaMg6Cu,0.111645190362835
mp-1022091,LaMg6Cu,0.035532761249999004
mp-1022093,Mg6CoCu,0.141825716875
mp-1022095,Mg6VCu,0.19902451812499902
mp-1022096,Mg6CuSn,0.01646482875
mp-1022097,Mg6CrCu,0.184704410625
mp-1022098,Mg6CuW,0.309982145937501
mp-1022099,Mg6CuW,0.32087634218750105
mp-1022100,KMg6Cu,0.23929709306249902
mp-1022101,Mg6CuMo,0.24738699875000003
mp-1022102,NaMg6Cu,0.11133942911283501
mp-1022104,RbMg6Cu,0.32440634906250004
mp-1022105,Mg6TiCu,0.146824912708333
mp-1022107,BaMg6Cu,0.11455017125000001
mp-1022110,LiMg6Cu,0.027136737187499003
mp-1022111,Mg6TiCu,0.13378487458333302
mp-1022112,LaMg6Cu,0.048912378124999004
mp-1022113,Mg6CuSn,0.014594901249999001
mp-1022116,Mg6CuB,0.19017400156250003
mp-1022119,Mg6CuC,0.31611625000000004
mp-1022123,Mg6CuSi,0.0991679275
mp-1022124,Mg6CuNi,0.06579154437500001
mp-1022131,Mg6VCu,0.2001937575
mp-1022134,LiMg6Cu,0.024314476562499
mp-1022140,RbMg6Cu,0.24316222656250003
mp-1022141,Mg6CoCu,0.088268615625
mp-1022142,CsMg6Cu,0.24812204369612
mp-1022143,KMg6Cu,0.20289781556249903
mp-1022148,SrMg6Cu,0.075518304352684
mp-1022169,Mg6CuC,0.25025166062500004
mp-1022174,SrMg6Cu,0.069766113727683
mp-1022188,BaMg6Cu,0.102363891875
mp-1022415,Mg6FeCu,0.18384698500000002
mp-1022452,CsMg6Cu,0.22062567744612002
mp-1022464,Mg6FeCu,0.17996332625000003
mp-1022617,Mg6ZrCu,0.10075782500000001
mp-1022621,Mg6ZnCu,0.039791635625
mp-1022640,Mg6ZnCu,0.038263840625000003
mp-1022665,Mg6ZrCu,0.090736659375
mp-1022964,YMg6Cu,0.03919748
mp-1023144,Mg6MnCu,0.140909244008621
mp-1023169,Mg6MnCu,0.14311863838362002
mp-1023314,CaMg6Cu,0.04684844640943701
mp-1023338,CaMg6Cu,0.05221253328443701
mp-1026876,Mg14CdCu,0.031928473125
mp-1026879,RbMg14Cu,0.18796684578125
mp-1026880,Mg14CuMo,0.14437190875
mp-1026881,CsMg14Cu,0.198300720598059
mp-1026882,Mg14CuSi,0.061167354374999004
mp-1026885,NaMg14Cu,0.07101812261321801
mp-1026890,Mg14CrCu,0.11569710625000001
mp-1026891,SrMg14Cu,0.0534587896875
mp-1026892,Mg14CuSb,0.0065524350000000006
mp-1026897,Mg14GaCu,0.021014983906250003
mp-1026898,Mg14CuBi,0.032772078749999003
mp-1026899,Mg14CuW,0.166224058593749
mp-1026900,HfMg14Cu,0.08516500187500001
mp-1026901,Mg14NbCu,0.114719833125
mp-1026902,Mg14CuB,0.15331111203125
mp-1026904,Mg14CuC,0.195261088749999
mp-1026905,BaMg14Cu,0.105891858125
mp-1027824,Mg14VCu,0.11961587750000001
mp-1027829,Mg14CuSn,0.0165322671875
mp-1027832,LiMg14Cu,0.030631446822916002
mp-1027838,KMg14Cu,0.126293934031249
mp-1027850,Mg14TiCu,0.088137179791667
mp-1027871,Mg14CuNi,0.045899193125
mp-1027902,LaMg14Cu,0.0513247784375
mp-1027942,Mg14ZrCu,0.061802386875000004
mp-1027986,Mg14FeCu,0.112858601874999
mp-1027999,Mg14ZnCu,0.038323606249999004
mp-1028130,YMg14Cu,0.037192458749999005
mp-1028157,Mg14MnCu,0.09348593575431001
mp-1028187,CaMg14Cu,0.042740838523595004
mp-1079209,Yb2CuGe6,-0.39191348333333204
mp-1079213,Y2CuGe6,-0.405174014444444
mp-1079671,Tb2CuGe6,-0.46913511166666705
mp-1080743,Er2CuGe6,-0.38827773888888806
mp-1092251,Nd2CuGe6,-0.48696523986111706
mp-1095027,Dy2CuGe6,-0.456863354074082
mp-1095038,La2CuGe6,-0.510093718194437
mp-1099265,YMg6Cu,0.051014268749999
mp-1099282,Mg6CuNi,0.06845809875
mp-1099285,CsMg6Cu,0.34773849494612
mp-1099304,CeMg6Cu,0.08074216718749401
mp-1099323,CeMg6Cu,0.059914329687494
mp-1101077,Ho2CuGe6,-0.40063240222222
mp-1206837,Sm2CuGe6,-0.441276877777778
mp-1206885,Tm2CuGe6,-0.37559872333333405
mp-1215203,ZrVCu,-0.037410205833333
mp-1219117,SmFeCu,-0.011509430000000001
mp-1219292,ScZnCu,-0.295312874166667
mp-1220000,Pr2CuSn4,-0.561814143333333
mp-1220053,PrFeCu,0.062943031944444
mp-1220268,NdFeCu,0.032394469166667
mp-1220472,NbGaCu,-0.27859320333333604
mp-1221981,MnInCu,0.368196595284892
mp-1222023,MgGaCu,-0.163937179166667
mp-1222081,MnInCu,0.18253492778489203
mp-1223589,La2CuSn4,-0.6459254168928511
mp-1225072,Er2CuNi,-0.38917302749999905
mp-1227346,Ca2CuAg,-0.18940077875000003
mp-1246274,NaCuN,0.13976211458333102
mp-1246450,ZnCuN,0.30257250499999905
mp-1247391,MgCuN,0.010492450694445
mp-2896844,CuGeI3,-0.043079134499998006
mp-5684,Ce2CuGe6,-0.420160808888888
mp-754086,Li2CuS2,-0.9865968353333331
mp-760814,LiCuF3,-2.2920082533333312
mp-1080068,CuCO3,-1.309031612
mp-1219248,Sm2CuTe4,-1.202939797499993
mp-1220509,Nd2CuTe4,-1.228554993571411
mp-1223340,La2CuTe4,-1.403486640952381
mp-27234,Cu(IO3)2,-0.8261393838888881
mp-567472,CuP4I,-0.14888066281745901
mp-625179,Cu(HO)2,-1.040605018499999
mp-769021,Na2CuO2,-1.253313765551723
mp-1216598,Tm2CuO4,-3.12024677857143
mp-1223234,La2CuO4,-2.97168242
mp-1101637,Ti2CuS4,-1.296274056666667
mp-1407369,LiCuS,-0.9045849086111101
mp-25886,CuPO4,-1.801056533273809
mp-28896,CuBIr,-0.211953697499997
mp-1216812,U2CuSi3,-0.36157002345833605
mp-1225070,Er2CuSi3,-0.743680840277778
mp-2220557,Ta2CuO6,-2.718128258296295
mp-2751271,La6CuSb15,-0.848386394999997
mp-570879,CaCuSn,-0.44361545222222104
mp-867701,Li6CuS4,-1.222398993636363
mp-997107,CuO2F,-0.8244834237499991
mp-1860697,ZnCuF4,-2.127863116666666
mp-1105163,CuSnPd2,-0.32663151312499705
mp-1213339,CuSnPd2,-0.33721526416666503
mp-1237811,SrCuO2,-1.557001147499999
mp-29049,SrCuO3,-1.705710698333334
mp-530850,Ta2CuO6,-2.774847067601851
mp-675320,Ta2CuO6,-2.7736348349629623
mp-996954,CuPtO2,-0.813504064999999
mp-996971,CuPdO2,-0.8181168762499991
mp-996975,CuAgO2,-0.724300867916666
mp-1377640,CuSnO6,-0.46809811781250005
mp-1224528,In5CuTe8,-0.43323272357142506
mp-1225738,CuBi5S8,-0.38873363285712703
mp-571305,RbCuCl3,-1.462800619
mp-752836,Cr4CuO12,-1.488450762941176
mp-754223,Ta2CuO6,-2.698968529407406
mp-777235,V5CuO12,-2.213105715
mp-997026,CuClO2,-0.517718236249999
mp-1178368,CuAsO3,-1.2752289075
mp-1181557,CuGeO3,-1.287257016
mp-1192969,SrCuO3,-1.702666660333334
mp-1213329,CuSnPd2,0.648793148750002
mp-16053,CuSiO3,-2.249616019
mp-19955,Co2CuGe2,-0.07822026500000101
mp-21141,Fe2CuGe2,-0.07974541
mp-21344,CuGeO3,-1.590967304
mp-2619433,BaCuO2,-1.890885188125
mp-1079516,Cu(ClO)2,0.142590569
mp-1181636,CuGeO3,-1.583694281999999
mp-1213134,Cu(HCl)2,-0.0033167375000000003
mp-28741,CuSe3Br,-0.5358364734062491
mp-997012,CuPdO2,-0.884183718749999
mp-997098,CuPtO2,-0.832393713749999
mp-1202570,CuGeO3,-1.598490092
mp-1208222,Ti11CuP8,-1.105995420440476
mp-2224859,BaCuO2,-1.8780107037499998
mp-754008,BaCuO2,-1.8778921256249999
mp-762337,Li2CuF5,-2.378491859145834
mp-884675,BaCuO2,-1.882130605625
mp-1246596,Li2CuN,-0.37292669477678503
mp-759657,Li3CuF6,-2.5508491636666593
mp-1213366,Cu(NO)3,1.015600316071428
mp-28584,Tl2CuI3,-0.6850442481944461
mp-554624,CuGeO3,-1.598613345124999
mp-554658,Cu(SbO3)2,-1.6386806038888881
mp-766486,LiCuS2,-0.771219750833332
mp-996987,LiCuO2,-1.428987384583333
mp-1079193,TiCuNi2,-0.336294755833332
mp-1238841,Cr2CuS4,-0.7482831182142841
mp-1246035,Mg5CuN4,-0.553243726958334
mp-1246870,Ca5CuN4,-0.6428870400937491
mp-1246923,Mn5CuN4,-0.08066468167887801
mp-1246956,Co2CuN2,0.304428454
mp-1247402,Zn5CuN4,0.152111354999999
mp-1247503,Mn2CuN2,-0.11558283954310401
mp-1247509,Co5CuN4,0.18416828850000103
mp-12759,Zn2CuAu,-0.155826837499998
mp-754584,Na5CuO4,-1.344127633189654
mp-1101139,Th2CuTe6,-1.154600238888889
mp-1192107,Ba8CuSi16,-0.28437071360000005
mp-1217627,Tb4CuPt3,-1.139227755
mp-1218339,SrCuO2,-1.514073782499999
mp-1219426,Sc8CuTe3,-0.7597775105555541
mp-1220695,Nb2CuTe4,-0.609634492380952
mp-1225844,Cu(Bi4Ir)3,-0.015616087499992002
mp-2037025,Th2CuTe6,-1.154600238888889
mp-23055,RbCuCl3,-1.485598939499999
mp-4643,Nb2CuO6,-2.526510771111111
mp-574367,CuAsSe,-0.16782721718750102
mp-662543,Cu(NO3)2,-0.7913011499074081
mp-753273,LiCuF4,-2.114821825361113
mp-753737,Li3CuS2,-1.168626543333333
mp-766467,LiCuS,-0.868768357499999
mp-766480,LiCuS,-0.8359936381944431
mp-1202343,Cu(BrO4)2,-0.10204001659090901
mp-1203008,Cu(N2O3)2,0.250560553181818
mp-1213666,CuC5O8,-0.32711366874999903
mp-1245456,CuGeN2,0.161832271406249
mp-1246214,CuSiN2,-0.486753191614582
mp-22688,CuSeO3,-1.08281089171875
mp-29440,CuMo3I7,-0.5983315423863641
mp-679991,CuW3Br7,-0.7950673230681811
mp-779650,Na5CuO4,-1.357861092189654
mp-780220,Na5CuO4,-1.343159956939654
mp-10533,YCuS2,-1.591449781406249
mp-1095504,HfCuGe,-0.492667959999998
mp-1101311,TiCuGe,-0.372016088055557
mp-1101867,ZrCuSn,-0.39142794750000304
mp-1102042,TiCuGe,-0.45810644805555706
mp-1102382,CuAsSe,-0.17330694468750102
mp-1103123,ZrCuGe,-0.582914781666667
mp-1173386,NdCuO3,-2.383346918999999
mp-1184180,CuTeAs,-0.068178869999999
mp-1190198,Mn3CuAs2,-0.066021179798851
mp-1192020,Eu2CuS3,-1.7938099050000011
mp-1192231,CuIO4,-0.8176255991666661
mp-1192723,Cs2CuBr4,-1.482696955615763
mp-1193370,Nb2CuS4,-0.9858095660714281
mp-1198174,CuMo3O11,-1.387505667
mp-1198564,EuCuGe,-0.47570865388889105
mp-1201607,Li7CuSi2,-0.21984450133333303
mp-1209096,Sc6CuTe2,-0.6928869853703701
mp-1210558,Nb2CuS4,-0.939789078214285
mp-1212639,K2CuCl4,-1.508337208571409
mp-1213440,CuBr3N2,1.229650818749999
mp-1237864,Nb2CuS4,-0.884403073214285
mp-1238809,Cr2CuS4,-0.719499162142855
mp-1238867,Cr2CuS4,-0.7119030478571411
mp-1239195,Cr2CuS4,-0.821157164642855
mp-12453,HoCuS2,-1.59167361328125
mp-12454,ErCuS2,-1.588405923489585
mp-12455,TmCuS2,-1.591410292656252
mp-1245556,KCuN,0.134313677388887
mp-1245590,NaCuN,0.11428015958333201
mp-12457,LuCuS2,-1.581217371822916
mp-1246756,CsCuN,0.19719779448755
mp-1246792,MgCuN,-0.28095053680555404
mp-1340758,YCuO3,-2.408082226
mp-19888,YbCuS2,-1.5905672895312502
mp-20083,ScCuSi,-0.677673488888888
mp-20107,MnCuAs,0.014883455689654001
mp-20203,MnCuP,-0.15543713502463002
mp-20255,TiCuSi,-0.564432879722223
mp-20331,CuSbSe2,-0.248575811406251
mp-20525,CuSO4,-1.509107240416665
mp-20977,CuTeO3,-1.214753712333333
mp-21609,SrCuN,-0.555102644861111
mp-21779,CaCuGe,-0.510463177777778
mp-22414,CuSeO3,-1.066740095968749
mp-22489,HfCuSi,-0.582629535
mp-22522,ZrCuSi,-0.644550211666667
mp-22982,CuBiS2,-0.347393063281248
mp-28270,KCuS,-0.921985167416667
mp-30196,ErCuP2,-0.9761921873214281
mp-3102,TaCuS3,-1.065123988466663
mp-4320,CuTeO3,-1.229309976583333
mp-4468,CuSbS2,-0.30456723890624904
mp-5014,CuAgS,-0.16145748815972402
mp-5305,CuAsS,-0.23201982510416502
mp-554040,CuSeO4,-1.009855195807296
mp-555044,DyCuS2,-1.5935681832812492
mp-569015,MgCuAs,-0.42629468833333306
mp-569531,Rb2CuBr3,-1.53308833
mp-569952,K2CuCl3,-1.626013471249999
mp-571440,K2CuBr3,-1.521074013666666
mp-603934,Fe2CuS3,-0.299460359583331
mp-605485,Fe2CuS3,-0.49371974583333106
mp-616439,Cs2CuCl4,-1.581658369285715
mp-640053,Rb2CuCl3,-1.7414245983333312
mp-642315,Lu6CuTe2,-0.704516600648148
mp-7352,MgCuP,-0.419133639047621
mp-753508,LiCuS,-0.8532056802777761
mp-753519,CuPO4,-1.8791115853571432
mp-753605,LiCuS,-0.885041404444443
mp-753826,LiCuS,-0.88267131861111
mp-758283,LiCuF4,-2.073621452027781
mp-765512,Li2CuF5,-2.360225285083333
mp-770767,SmCuO3,-2.4121013065
mp-10381,K2CuSb,-0.405258609374999
mp-1080057,CeCuSi2,-0.595627315625
mp-1080588,LaCuGe2,-0.6842285074999981
mp-1080708,CeCuGe2,-0.5369431812499981
mp-1084813,NdCuGe2,-0.6380270718750011
mp-1095168,PrCuSn2,-0.46998997541666604
mp-1095660,EuIn4Cu,-0.25833753111111
mp-1104535,Hf2CuSi4,-0.411790351428571
mp-1104732,Zr2CuSi4,-0.49054470571428505
mp-1147719,BaCuS2,-1.327940898749999
mp-11760,ErCd2Cu,-0.129327646249998
mp-1206082,CeCuGe2,-0.057056021249999006
mp-1206168,CeCuSi2,-0.08482368937499901
mp-1218830,Sr2CuO3,-2.159003598333333
mp-1245533,VCuN2,0.3227280253125
mp-1245551,CuOsN2,0.39272476249999805
mp-1246654,CuGeN2,0.571138899999997
mp-13045,EuCuSn2,-0.43090611375000104
mp-15684,K2CuAs,-0.3349658455
mp-15685,Na2CuAs,-0.46944853812500004
mp-17801,Hf2CuGe4,-0.373421887142855
mp-18279,Zr2CuGe4,-0.48365943214285606
mp-19968,CaIn2Cu,-0.40446337875000105
mp-2767268,VCuO2,-1.8485837218749999
mp-30598,SrCuSn2,-0.42304246500000003
mp-3421,CuCN2,0.187923200625
mp-3982,KCuO2,-1.3747728230624991
mp-504927,CrCuO4,-1.351861724166666
mp-541037,CsCuO,-1.185304593218391
mp-553310,CsCuO2,-1.348183712413794
mp-554109,CuSeO4,-0.994196251223957
mp-555093,CuB4O7,-2.456103448888888
mp-5787,SrCuO2,-2.077615858749999
mp-5792,BaCuSn2,-0.451466058749998
mp-7467,RbCuO2,-1.357687516875
mp-753490,TiCuGe,-0.37582612805555704
mp-755646,LiCuO,-1.337436704444444
mp-759235,Li2CuF5,-2.410240458520833
mp-7639,Na2CuP,-0.46383814949404706
mp-8446,K2CuP,-0.42659016261904803
mp-8911,CuAgS,-0.161548739826391
mp-978092,PrCuGe2,-0.637492519166666
mp-996986,LiCuO2,-1.405479454583333
mp-997034,BaCuO2,-1.99196457625
mp-997041,NaCuO2,-1.349820689094826
mp-1022726,Ba2CuH6,-0.411738973055555
mp-1103827,Cu(NF2)2,0.468972877142856
mp-1104198,Cu(NCl2)2,1.150794603571427
mp-1147709,Sr2CuH6,-0.44778546694444404
mp-1180676,La2CuO4,-2.97224272
mp-1247364,Li3CuN2,-0.20609667626984302
mp-15742,Nd2CuO4,-2.896723183571427
mp-16115,Pr2CuO4,-2.874316751904762
mp-23508,Rb2CuCl4,-1.694718441428571
mp-28556,Na3CuO3,-1.44253688273399
mp-36480,La2CuO4,-2.9840769700000003
mp-3879,Ba2CuF6,-3.391703464444444
mp-557552,Sr2CuF6,-3.42283717888889
mp-561216,CuGeO3,-1.602368533499999
mp-752673,Dy2CuO4,-3.106562103333331
mp-753123,Li2CuF4,-2.57956592190476
mp-753901,Er2CuO4,-3.134255980714284
mp-754263,Ho2CuO4,-3.117483926428569
mp-755924,Y2CuO4,-3.059798596428571
mp-8388,K2CuF4,-2.538780793499999
mp-1078081,K2CuF4,-2.4786485734999992
mp-1147779,CaCuO2,-2.072363142499999
mp-1220204,NdCuNi4,-0.259869711250019
mp-2224869,CuTeO4,-1.237338142777777
mp-2913337,BaCuO2,-1.8869188000000001
mp-567690,TbMg4Cu,-0.096382321944445
mp-570765,YMg4Cu,-0.09725290916666601
mp-752843,Li2CuF4,-2.542806373333331
mp-759224,Li5CuF8,-2.749719758809523
mp-761415,CuNi3O4,-1.084837146875
mp-772213,La4CuO8,-3.109178970769231
mp-997031,MgCuO2,-1.9478778099999992
mp-1246662,CuSi7N10,-1.005761355185184
mp-1246902,CuGe7N10,0.027801253055558
mp-675009,Y4CuTe8,-1.340544127179486
mp-753171,Li2CuF4,-2.58869610047619
mp-1213144,Cu(Cl2O)2,0.21084646857142803
mp-568778,CuTeBr,-0.6121735780555541
mp-853967,LiCuS,-0.9031884436111101
mp-1093535,Zr2CuRh,2.78111798
mp-1093575,MnCuAu2,1.4938192905172412
mp-1093581,ZrCuAu2,1.794594542500001
mp-1093593,Y2ZnCu,2.25007795
mp-1093608,La2GaCu,1.797024237031252
mp-1093625,Ga2CuPd,1.175157653410217
mp-1093651,CuSiIr2,2.688695777187504