material_id,formula,formation_energy_per_atom
mp-5646,NdSnAu,-0.8340292058333281
mp-567197,YSnAu,-0.8165893133333331
mp-568814,HoSnAu,-0.802268359999997
mp-610631,LaGeAu,-0.8769571700000041
mp-6919,ScSnAu,-0.7841686600000011
mp-9025,YSiAu,-0.9254830983333351
mp-9350,ScGeAu,-0.7906717483333281
mp-9351,LuGeAu,-0.77743900555555
mp-1206647,NiSn2Au,0.020342277500001
mp-1215464,YbSiAu,-0.8685501533333351
mp-1215498,YbGeAu,-0.8234622083333341
mp-1225433,Eu2Ge3Au,-0.594851622500002
mp-1225441,Eu2Si3Au,-0.547441570000001
mp-1227046,CaSiAu,-0.712450351666665
mp-1227729,BaSiAu,-0.579091880000001
mp-1228346,Ba2Si3Au,-0.440042773333333
mp-12951,ZrGaAu,-0.690730113333335
mp-12952,HfGaAu,-0.585433001666667
mp-29868,LiAuC2,0.21742986958333402
mp-9023,ScSiAu,-0.8063665049999991
mp-9024,LuSiAu,-0.8655760488888871
mp-9164,ThSiAu,-0.775856483333332
mp-9487,USiAu,-0.216277349999997
mp-1080496,GdInAu,-0.827260184444444
mp-1080605,MgGaAu,-0.42755753416666303
mp-1091370,LuInAu,-0.829624729999996
mp-1092318,TmInAu,-0.852922887777778
mp-11082,CeCdAu,-0.5318187788888861
mp-1205750,YMgAu,-0.6710993994444431
mp-1205756,DyMgAu,-0.671659367777775
mp-1205778,HoCdAu,-0.630434348333329
mp-1205820,TbMgAu,-0.672193160555556
mp-1205879,PrCdAu,-0.622389334999995
mp-1205903,NdMgAu,-0.6405343830555551
mp-1205911,TmCdAu,-0.623908175555555
mp-1205950,TbCdAu,-0.645446068888887
mp-1205975,ErMgAu,-0.6713371372222171
mp-1205979,SmMgAu,-0.6557136155555551
mp-1206060,LaMgAu,-0.6522967188888871
mp-1206166,ErCdAu,-0.6309981733333381
mp-1206259,TmMgAu,-0.668007817222225
mp-1206315,SmCdAu,-0.640554194999997
mp-1206542,DyCdAu,-0.641000579444442
mp-1206674,YCdAu,-0.6413470477777781
mp-1209833,NdCdAu,-0.6334022113888891
mp-19718,CeInAu,-0.6102294155555561
mp-21438,LaInAu,-0.752052902777778
mp-22177,DyInAu,-0.7347143727777741
mp-22718,TbInAu,-0.741065467777777
mp-30375,ErInAu,-0.8569172288888901
mp-3630,HoInAu,-0.7292121083333241
mp-542251,LaCdAu,-0.6587759416666631
mp-570912,YbInAu,-0.8492228794444441
mp-580154,GdMgAu,-0.669280926111105
mp-621132,PrInAu,-0.7148423794444481
mp-621176,YInAu,-0.876083925555563
mp-621351,SmInAu,-0.736517479444444
mp-621362,NdInAu,-0.726908476944446
mp-759835,CeMgAu,-0.540785976111112
mp-1208220,Ti5Sn3Au,-0.39688828341796906
mp-1209635,Pr5Sn3Au,-0.733393084814811
mp-1213873,Ce5Sn3Au,-0.609902571111109
mp-1018661,CePbAu,-0.49706357333333107
mp-1018676,CeSbAu,-0.7362751833333311
mp-1018744,LaPbAu,-0.6403945349999991
mp-1018825,NdPbAu,-0.572041882499998
mp-1018896,PrPbAu,-0.575288955555553
mp-1019110,SmPbAu,-0.554344536666665
mp-10677,CaPAu,-1.006515299325395
mp-1071536,USnAu,-0.23287591000000502
mp-1071595,PrSnAu,-0.779589710555554
mp-1071985,CeSnAu,-0.690567054999998
mp-1072286,YSnAu,-0.7269562483333321
mp-1072501,DySnAu,-0.7177531705555531
mp-10769,BaSbAu,-0.316392503333332
mp-1076971,HoSnAu,-0.701215391666664
mp-1077233,SmSnAu,-0.765854294999999
mp-1077361,BaAsAu,-0.927193380833335
mp-1077772,NdSnAu,-0.779810217499999
mp-1095305,NdSbAu,-0.9148336533333341
mp-1095307,CeSbAu,-0.8292057983333321
mp-11021,GaAuO2,-1.506361439374998
mp-11023,ScAuO2,-2.563697553749998
mp-11193,VAuS2,-0.9557162937499981
mp-11815,SrSbAu,-0.38620116999999904
mp-11977,LiSnAu,-0.423544417777778
mp-1206525,SrAsAu,-1.057655779166665
mp-1206849,SrPAu,-1.032215819325396
mp-1207973,UGaAu,-0.466255895000008
mp-14624,K5P2Au,-0.491352169337798
mp-16245,CaSbAu,-0.8008058683333311
mp-19723,InAuO2,-1.325691880416664
mp-19729,EuAsAu,-0.912312789166666
mp-22475,EuSbAu,-0.8633745166666671
mp-22783,EuPAu,-0.9152064265476241
mp-30251,YAuO2,-2.564518633749998
mp-31140,BaBiAu,-0.277758661666667
mp-31141,SrBiAu,-0.40177515979167305
mp-3553,KTeAu,-0.7731471412499971
mp-3927,CaAsAu,-0.9990167908333321
mp-505212,Cs3AuO,-0.866148916793104
mp-568895,BaSbAu,-0.925474241666669
mp-570351,Na2Sn3Au,-0.32525175249999905
mp-7025,RbTeAu,-0.6749490447222231
mp-7180,UGeAu,-0.213836603958336
mp-8683,K5As2Au,-0.42455722140625
mp-9264,NaTeAu,-0.6205229249999981
mp-985439,BaPAu,-0.875082199880953
mp-997003,LaAuO2,-2.563249235
mp-997008,TlAuO2,-0.769558824583334
mp-997015,PbAuO2,-0.9499197774999991
mp-997095,NiAuO2,-0.8277594062500001
mp-997099,PdAuO2,-0.5733655737500001
mp-997158,CoAuO2,-0.9538455450000001
mp-997159,CrAuO2,-1.622478742499999
mp-1220523,Nb3ZnAu,-0.07930530000000001
mp-10559,Gd3AuO6,-3.089925464999999
mp-10560,Sm3AuO6,-3.077528223500002
mp-1206693,Cs3AuF6,-2.216576375500003
mp-1206834,Rb3AuF6,-2.292897381249999
mp-1206879,K3AuF6,-2.298890059175
mp-21389,Eu3AuO6,-2.540529372500005
mp-28330,TeAuCl7,-0.515433388055557
mp-30938,PAuS4,-0.21174080820436303
mp-3530,Au(OF3)2,-0.947851747777778
mp-541134,TeAuBr8,-0.301280221666667
mp-541774,BiAuBr6,-0.8604228800000001
mp-567414,BiAuCl6,-0.731505600624998
mp-675606,Li5AuO4,-1.722314442666666
mp-990238,Au(OF3)2,-0.9614194822222221
mp-996998,HAuO2,-0.7547729740625
mp-997036,CdAuO2,-0.8891108574999991
mp-997109,PbAuO2,-0.9648734562499981
mp-997027,AuO2F,-0.518941835
mp-997033,AuBrO2,-0.07940325874999901
mp-997092,AuClO2,-0.131221201249999
mp-1217024,Ti6PtAu,-0.534317246249997
mp-1220356,Nb6PtAu,-0.27616598999999903
mp-1220409,Nb6OsAu,-0.216729242499997
mp-1246686,Li3AuN2,-0.021367947499998003
mp-27554,Ag3AuS2,-0.09485799760416501
mp-1211485,La3AuI3,-1.331348734642857
mp-3172,Ag3AuSe2,-0.14919083427083002
mp-5710,Ag3Te2Au,-0.10585073750000101
mp-1024977,YbNi4Au,-0.40126384083333705
mp-1025001,ErNi4Au,-0.40452165833333203
mp-1071438,GdNi4Au,0.49467901000000103
mp-1072255,ScNi4Au,-0.40065256583333003
mp-1072381,LuNi4Au,-0.41893681111111003
mp-1077279,DyNi4Au,-0.38688771861111004
mp-1077340,HoNi4Au,-0.39429783416666303
mp-1077347,UPt4Au,-0.7097542908333401
mp-1077547,TmNi4Au,-0.410863023333333
mp-1077552,TbNi4Au,-0.37928236944444405
mp-1100397,BaAuCl,-1.427983426666666
mp-1100442,TiAuBr,0.253401070555555
mp-11242,DyPbAu,-0.674255037222226
mp-1222602,Li2SiAu,-0.45658788666666605
mp-1222650,Li2MgAu,-0.431082720416665
mp-1226720,CdSnAu,-0.19565236666666802
mp-1226723,CdSnAu,0.009819416666668001
mp-12564,LiSbAu,-0.323932655202019
mp-13305,SmSnAu,-0.855774013333331
mp-13308,HoGeAu,-0.741835413333331
mp-16246,CdSbAu,-0.128421373333334
mp-20275,CeGeAu,-0.608225428333332
mp-20415,GdPbAu,-0.782890306666663
mp-20514,GdSnAu,-0.915463206666667
mp-22027,MnSnAu,-0.171871310804595
mp-2894,ScSnAu,-0.8532462150000031
mp-2935,Li2GeAu,-0.485090115416667
mp-30377,ErPbAu,-0.657796673333332
mp-30381,Li2GaAu,-0.552045800833333
mp-30389,HoPbAu,-0.6630258750000001
mp-30390,HoSnAu,-0.8454543066666661
mp-30392,Li2InAu,-0.5411552658333321
mp-30403,Li2PbAu,-0.402785434166665
mp-30404,Li2SbAu,-0.600052838333333
mp-30405,Li2SnAu,-0.527563775416666
mp-30406,Li2TlAu,-0.380884878333333
mp-30413,TbPbAu,-0.685950168888892
mp-31142,YbBiAu,-0.49401870999999603
mp-3462,TmSnAu,-0.8328357016666691
mp-5177,LuSnAu,-0.931271765555555
mp-5549,MgSnAu,-0.434026843333333
mp-5640,ErSnAu,-0.8443013916666671
mp-567076,Li2BiAu,-0.47192984541666705
mp-568398,CaBiAu,-0.8070770083333371
mp-5944,MnSbAu,-0.09402536482758701
mp-621592,YPbAu,-0.8253234799999991
mp-631562,SiBAu,0.901577752361106
mp-631566,TaAuBr,0.9427529792222231
mp-631573,Re2AuSe,0.869936454296869
mp-669370,Ta5AuS,-0.38767955202380505
mp-961693,ZrInAu,-0.624336455
mp-961697,ScGeAu,-0.7613223916666431
mp-962077,TiAuCl,0.144590312638882
mp-1110791,RbAuCl3,-1.322804313499999
mp-1110854,KAuCl3,-1.291860333449999
mp-1110999,RbAuBr3,-1.138901488499999
mp-1111644,RbAuF3,-1.912463796499999
mp-1111868,KAuF3,-1.885072838449999
mp-1112174,KAuBr3,-1.103536214449999
mp-1112985,CsAuF3,-1.813374640666666
mp-1112987,CsAuBr3,-1.165763424931035
mp-1183212,BAuO3,-0.30073161883333305
mp-1183287,BaAuO3,-1.464683951
mp-1183414,BeAuO3,-0.6280899599999991
mp-1183686,CoAuO3,-0.220394899
mp-1184383,EuAuO3,-1.475938794000001
mp-1184942,KAuO3,-0.5509545864499991
mp-1185548,CsAuO3,-0.459805178931034
mp-1186920,SbAuO3,-0.8976824790000001
mp-1187146,SrAuO3,-1.420715157
mp-1187924,YbAuO3,-1.103374908249998
mp-1207183,Mn3AuN,-0.316705495064636
mp-23026,CsAuCl3,-1.123558720500003
mp-4405,Rb3AuO,-0.8160150875000001
mp-635460,V3AuN,2.204516176249993
mp-9040,Ca3AuN,-0.860311607749997
mp-9200,K3AuO,-0.8797196933499991
mp-971700,ZnAuO3,-0.153992088999999
mp-975405,RbAuO3,-0.5241850445
mp-982245,PbAuO3,-0.6029205189999991
mp-1104290,Ti3H3Au,-0.49875889660714207
mp-1110573,Na3AuF6,-2.098063612
mp-1110580,Li3AuF6,-2.108157918
mp-1111498,K3AuF6,-2.287342582175
mp-1111499,K3AuCl6,-1.516515448174999
mp-1111500,K3AuBr6,-1.287507607174999
mp-1111705,Na3AuBr6,-1.092238932413793
mp-1112982,Cs3AuBr6,-1.364355470896552
mp-1113311,Na3AuCl6,-1.321830939413793
mp-1113832,Rb3AuF6,-2.292593205249999
mp-1114110,Rb3AuBr6,-1.3238426192500001
mp-1114492,Rb3AuCl6,-1.546091129250002
mp-1183066,Ac2ZnAu,-0.542450432499997
mp-1183442,BiPd2Au,-0.18979512375000201
mp-1183466,Ca2PtAu,-0.906918472499999
mp-1183541,Cd2RhAu,-0.14111849749999902
mp-1183607,Ca2PbAu,-0.645073704999998
mp-1183633,CdPd2Au,-0.2871393425
mp-1183880,Eu2AsAu,-0.9944886568750021
mp-1183887,Eu2BiAu,-0.8428153075000051
mp-1183891,Eu2AgAu,-0.5343744529166711
mp-1184039,Eu2PdAu,-0.721978855000002
mp-1184081,Er2RuAu,-0.6295216224999991
mp-1184089,Dy2AgAu,-0.5903140237499951
mp-1184110,Er2AgAu,-0.612601145416663
mp-1184354,Gd2IrAu,-0.819186280000003
mp-1184372,Eu2SbAu,-0.9396289225000001
mp-1184381,Gd2AgAu,-0.5509218812499981
mp-1184595,Ho2IrAu,-0.850873084999998
mp-1184617,Ho2ZnAu,-0.600204227499997
mp-1184622,Ho2AgAu,-0.596929542916663
mp-1184757,K2CdAu,-0.13510200582682302
mp-1184758,K2HgAu,-0.26393448097917
mp-1184770,InNi2Au,-0.072453102499999
mp-1184967,Li2PbAu,-0.38585482416666506
mp-1184982,Li2BiAu,-0.46415357291666803
mp-1185018,La2RuAu,-0.45110806500000006
mp-1185262,LiPd2Au,-0.29213924624999504
mp-1185330,LiEr2Au,-0.495437786250001
mp-1185365,LiMg2Au,-0.460586658333332
mp-1185371,LiLu2Au,-0.522471543541669
mp-1185456,Lu2PdAu,-0.977697540833325
mp-1185760,Mg2HgAu,-0.39306523062500104
mp-1185765,Mg2IrAu,-0.42680446999999905
mp-1185923,MgPd2Au,-0.5026670762500001
mp-1185995,MnPd2Au,-0.196563024482756
mp-1186021,Na2HgAu,-0.294989354375001
mp-1186438,Pm2AgAu,-0.5861513324999941
mp-1186473,Pm2PdAu,-0.828619471249999
mp-1186791,Pu2SbAu,-0.313057614374992
mp-1186938,Sc2CdAu,-0.5713901449999981
mp-1187003,Sm2IrAu,-0.735747755000002
mp-1187095,Sr2PdAu,-0.6500540649999991
mp-1187265,Tb2IrAu,-0.8191927308333321
mp-1187585,Tm2RuAu,-0.6460549550000041
mp-1187587,Tm2ZnAu,-0.688506626250003
mp-1187588,Tm2AgAu,-0.6765553587500001
mp-1187605,Tm2PdAu,-0.9635711550000031
mp-1187705,Y2IrAu,-0.8030449375000001
mp-1187709,Y2ZnAu,-0.6466200587499991
mp-1187720,Y2AgAu,-0.6383172437499981
mp-1187757,Y2RuAu,-0.5531843899999991
mp-1187879,Yb2AgAu,-0.6922316712499991
mp-1187891,Yb2GeAu,-0.826116737500001
mp-1187934,Yb2RhAu,-0.9802466525
mp-31170,Cd2AgAu,-0.151908938750001
mp-31171,Zn2AgAu,-0.156005926249999
mp-631554,Na2TiAu,0.548553906408045
mp-631571,Bi2OsAu,0.7218321493749961
mp-861929,Pu2BiAu,-0.605360265625009
mp-861937,Ba2AsAu,-0.9461468618750001
mp-861950,Ca2SbAu,-0.9151396175000001
mp-862257,Sc2ZnAu,-0.599019242499999
mp-862378,Sc2TcAu,-0.5072878362499981
mp-862631,Ba2SbAu,-0.9366391824999991
mp-862698,Ac2SiAu,-0.6415023025000011
mp-862703,Sc2AgAu,-0.584058553750001
mp-862747,Sr2PtAu,-0.798878797499995
mp-862829,PaTe2Au,-0.48694153499999904
mp-862947,Ba2BiAu,-0.865384862499998
mp-862976,PmZn2Au,-0.484408536875001
mp-863251,Sr2SbAu,-0.929826310000001
mp-863258,Sr2AsAu,-1.117750643652254
mp-863684,Pm2GeAu,-0.825982106249998
mp-863715,Pm2IrAu,-0.817601913749996
mp-863724,InPd2Au,-0.43434150749999706
mp-863733,Pm2RuAu,-0.5138721350000061
mp-863736,Ho2OsAu,-0.5996726805468741
mp-863744,Ca2PdAu,-0.740615747500001
mp-864772,LiSc2Au,-0.473255859166666
mp-864783,Yb2SbAu,-0.785525567499995
mp-864800,Yb2PdAu,-0.988668887500004
mp-864844,Zn2RhAu,-0.336108980000002
mp-864965,Mg2RhAu,-0.5368869725000001
mp-864972,Mg2PdAu,-0.658968265000001
mp-864978,Mg2AgAu,-0.425984957916666
mp-865232,TlPd2Au,-0.18658769749999402
mp-865369,Tm2OsAu,-0.6361541900000061
mp-865406,Lu2ZnAu,-0.692995994583334
mp-865445,Lu2AgAu,-0.6856060445833301
mp-865467,Pm2SnAu,-0.8121548862499991
mp-865545,Pm2SiAu,-0.7100191050000001
mp-865577,Li2CdAu,-0.435236238333331
mp-865711,Li2TlAu,-0.409286208333334
mp-865714,Li2HgAu,-0.47495524770833303
mp-865799,Yb2AsAu,-0.924894145625003
mp-865800,Yb2BiAu,-0.643898396250001
mp-865815,YbPd2Au,-0.8270707137499961
mp-865871,Li2ZnAu,-0.38858388458333304
mp-865879,Li2AgAu,-0.39391474458333403
mp-865951,Ac2IrAu,-0.695376886249995
mp-866024,Be2RhAu,-0.414462902499998
mp-866176,Li2PdAu,-0.512904950833331
mp-867113,Ca2AsAu,-1.093239665624999
mp-867160,LiCd2Au,-0.36756647666666303
mp-867193,Sr2BiAu,-0.9549747737500021
mp-867255,LiZn2Au,-0.392206324166668
mp-867307,Be2RuAu,-0.257657087499998
mp-867502,Eu2PtAu,-0.840425847500002
mp-867799,Ca2BiAu,-0.9215019562500011
mp-971891,Zn2PdAu,-0.388126027499999
mp-972866,Sc2PdAu,-0.8739244649999981
mp-972879,Sc2RuAu,-0.6800551299999991
mp-972898,Sc2GaAu,-0.743668615
mp-972925,ScZn2Au,-0.46011325874999903
mp-972960,La2IrAu,-0.7084981525
mp-972966,Sc2OsAu,-0.5890004374999971
mp-973270,Ho2RuAu,-0.6026647899999971
mp-973414,Lu2RuAu,-0.6756881333333341
mp-973456,Lu2TcAu,-0.525055783645832
mp-973606,Nd2IrAu,-0.678173896249999
mp-975176,Rb2HgAu,-0.21356119687500102
mp-976260,LiTm2Au,-0.509104748958336
mp-976289,NaCd2Au,-0.173912735344826
mp-977383,ZnPd2Au,-0.33670066749999805
mp-977454,HgPd2Au,-0.159579113125003
mp-977553,Yb2PtAu,-1.198981084999999
mp-978089,Pr2IrAu,-0.6379835933333321
mp-978824,Sm2RuAu,-0.48480495999999906
mp-981393,Lu2HgAu,-0.7609173627083331
mp-982772,Pm2PtAu,-1.024383191250002
mp-983555,Er2PdAu,-0.9481179916666631
mp-983602,CdAg2Au,-0.088548262499998
mp-983850,Ca2AgAu,-0.55499469375
mp-983908,Er2ZnAu,-0.676950140416664
mp-984104,Dy2IrAu,-0.834701708333328
mp-542680,Na3In2Au,-0.22486557416187802
mp-776165,AgAuO3,-0.35684384233333205
mp-1216862,U2Si3Au,-0.24708232666666402
mp-1221759,Mn4Hg3Au,0.179463257844822
mp-1222164,Mg4HgAu,-0.329232920416667
mp-1225611,Er2PtAu,-1.217720370416664
mp-675690,Ba2PtAu,-0.7329175962499991
mp-996985,HAuO2,-0.739993570312499
mp-542839,TlSbAu,-0.12485336249999501
mp-1246525,Si2AuN3,-0.696359566944439
mp-1205968,Tb2Ge6Au,-0.38390644259259205
mp-1206261,Sm2Ge6Au,-0.40595814888888904
mp-1207374,Ce2Ge6Au,-0.38503156111111003
mp-1209737,Pr2Ge6Au,-0.40936914259259205
mp-1215270,ZrTiAu,-0.375549615000001
mp-1218708,Sr2PtAu,-0.8582161249999981
mp-1227265,Ca2PtAu,-0.9270526550000001
mp-1228329,Ba2PtAu,-0.729578259999999
mp-1228842,AuN7O9,0.6784873435294101
mp-29198,Na5AuSe12,-0.6052610313194451
mp-30159,AuBrF6,-1.29653018625
mp-1228316,Ba4Si22Au,-0.17629417388888902
mp-1222953,LaAs2Au,-0.8121507237500001
mp-1071278,CaSnAu,-0.724991624999998
mp-1217309,Th2Si3Au,-0.804311667499997
mp-1220319,Nd5Si9Au,-0.7322573238333341
mp-9249,NaGeAu,-0.34725840166666905
mp-9293,EuGeAu,-0.7374095766666631
mp-27418,KAuO2,-1.116117736812499
mp-37920,AgAuS2,0.042853256093746
mp-1224371,GeAsAu,-0.10465977083333101
mp-1541909,CsTeAu,-0.710220707107279
mp-27527,Te2AuI,-0.40614709208333105
mp-31495,AgTe2Au,0.112651950208334
mp-573755,CsTeAu,-0.7088035721072761
mp-9008,RbTeAu,-0.683386598055555
mp-996980,AgAuO2,-0.45604135291666703
mp-1196164,PrAs2Au,-0.7552006160416651
mp-28853,LaAuO3,-2.314873115500002
mp-1181655,Cs3Sn4Au,-0.318975470304565
mp-1183951,Cs3Pb4Au,-0.26411946799568503
mp-17112,K3Ge4Au,-0.269501180218753
mp-17401,Rb3Sn4Au,-0.33685004843750005
mp-17830,Rb3Ge4Au,-0.26604828406250003
mp-18500,K3Sn4Au,-0.336079271468747
mp-510341,Cs3Ge4Au,-0.26901937737068904
mp-608081,Rb3Pb4Au,-0.125702981562498
mp-756732,Rb3Sn4Au,-0.22204743406249902
mp-1215710,Yb4Pt3Au,-1.359025017500002
mp-1094079,PAuS,-0.093166629411442
mp-1246762,TaAuN2,-0.5064871078229131
mp-30003,AuSO4,-1.313295811874998
mp-1095513,SrCdAu,-0.590600186666666
mp-1102568,EuZnAu,-0.6231123633333361
mp-11084,EuCdAu,-0.60690479833333
mp-11253,NaSnAu,-0.39885512249999905
mp-11811,CaGaAu,-0.7741387808333351
mp-1186304,NdAs2Au,-0.7570331074999981
mp-1196161,AgAuF7,-1.08911063388889
mp-1197816,AuI5N,0.9277241973214281
mp-1199600,Lu6Te2Au,-0.7713951753703701
mp-1245755,MgAuN,-0.11986784666666601
mp-13549,CeZnAu,-0.58276365833333
mp-19901,EuInAu,-0.6625764147222211
mp-20378,CaInAu,-0.7679717808333301
mp-20562,CeGeAu,-0.716982991666665
mp-21710,CaGeAu,-0.7222714347222201
mp-22529,SrInAu,-0.64560662638889
mp-27199,AuSeBr,-0.490861640364582
mp-29561,CaSnAu,-0.7379697391666661
mp-31071,Ba2Tl7Au,-0.28509382058333804
mp-31281,SrSnAu,-0.740117963333333
mp-569628,CaCdAu,-0.608601469166665
mp-579779,Pr2P3Au,-1.017568769543649
mp-628664,Ce2P3Au,-1.038937004404763
mp-644828,AuXe2F17,-0.91849592
mp-978809,SmAs2Au,-0.7531550356250001
mp-1077383,CsAuS,-0.9060417276041661
mp-1078700,Li2BiAu,-0.44714423416666804
mp-1078709,Na2BiAu,-0.44513783
mp-1084770,K2BiAu,-0.519921641875001
mp-1102671,EuIn4Au,-0.36421785777777305
mp-20343,NaAuO2,-1.081343630344827
mp-20746,YbIn2Au,-0.563394971249998
mp-21352,NaIn2Au,-0.280138357428159
mp-22602,CaIn2Au,-0.639449738749998
mp-27490,Te2AuCl,-0.30498063687500104
mp-29175,Ca2AuN,-0.9235060309374991
mp-30317,Sr2AuN,-0.7242594735625011
mp-574599,CsAuSe,-0.8916692380208341
mp-639496,EuIn2Au,-0.526435019583333
mp-7077,KAuS,-0.8778747771875001
mp-7472,RbAuO2,-1.136231163125
mp-752678,AgAuO3,0.002464529166667
mp-7773,Na2AsAu,-0.596101208124999
mp-7774,Na2SbAu,-0.549332992499998
mp-863757,K2SbAu,-0.6194334143749991
mp-9010,RbAuS,-0.927596775
mp-9687,K2PAu,-0.595615487619046
mp-9731,RbAuSe,-0.9068824016145831
mp-9881,KAuSe,-0.8961049631979161
mp-997002,KAuO2,-1.1440430680624991
mp-997024,CsAuO2,-1.135024628663794
mp-1106039,SmAs2Au,-0.752672071250001
mp-1179432,SmAs2Au,-0.7529914012500011
mp-1186786,PrAs2Au,-0.750270266354166
mp-1189241,GdAs2Au,-0.8622615306250011
mp-1202146,TbAs2Au,-0.734720169166666
mp-1341099,PrAs2Au,-0.7517442497916661
mp-997032,MgAuO2,-1.6732092212499992
mp-997037,CdAuO2,-0.8689751199999991
mp-1204074,NaAuS,-0.8325306321264361
mp-1102390,Eu2Ge3Au,-0.652630449166667
mp-31470,Na4TlAu,-0.203975012916667
mp-27181,KAuCl4,-1.318467975374999
mp-29829,LiAuS,-0.8895950427777771
mp-757242,Li5AuO4,-1.805457756666666
mp-1093551,MgPd2Au,1.6172809512500002
mp-1093587,La2HgAu,1.478304191874997
mp-1093594,Cd2RhAu,1.3339790399999991
mp-1093612,Y2IrAu,1.6710269475000001
mp-1093621,Ca2PAu,0.370788582648824
mp-1093626,Cd2PtAu,1.207668750000001
mp-1093646,SnRh2Au,2.141133156250001
mp-1093650,MnPd2Au,1.952098593017241
mp-1093692,Li2SiAu,1.093259575833333
mp-1093718,Cs2AuCl,-0.8685867206250001
mp-1093726,BiPd2Au,1.536553148861116
mp-1093727,LiMg2Au,0.781362491666667
mp-1093733,Y2PdAu,1.4787339800000041
mp-1093741,NaLi2Au,0.731160084166667
mp-1093748,Rb2AuI,-0.5810805799999991
mp-1093783,NaTl2Au,0.7532160989583401
mp-1093787,Y2AgAu,1.733360426250005
mp-1093811,Y2CdAu,1.7907868
mp-1093817,Cs2HgAu,0.22161760454741103
mp-1093847,Ba2PdAu,0.6619255350000001
mp-1093857,Y2RuAu,1.832730695
mp-1093896,Cs2AuI,-0.6276407360775861
mp-1093925,Ba2PAu,0.38389526883928504
mp-1093943,InAg2Au,0.9943846135416651
mp-1093954,Be2PdAu,1.595966
mp-1093955,YHg2Au,1.011568688437492
mp-1093988,AgPd2Au,2.014356130833331
mp-1095731,Li2AsAu,0.505096622916667
mp-1095757,SnPd2Au,1.443995434374997
mp-1095773,La2RuAu,1.360659077499999
mp-1095792,Be2PtAu,1.624122335
mp-1095794,Pd2PbAu,1.491040409166665
mp-1095816,Mg2PtAu,1.07876796
mp-1096123,HfScAu2,2.028100856249999
mp-1096176,ZrHgAu2,1.364288419374998
mp-1096203,ZrPdAu2,1.7987104559166691
mp-1096212,MnZnAu2,0.910556041637931
mp-1096217,CdPdAu2,1.264322782500001
mp-1096221,YHfAu2,1.992030024999998
mp-1096267,CaPbAu2,0.8040826725000011
mp-1096274,AgGeAu2,1.257998989374989
mp-1096290,YRhAu2,1.785920445
mp-1096305,HfZrAu2,2.376071924021751
mp-1096392,HfVAu2,2.41715519249999
mp-1096422,TiAgAu2,1.510642609166666
mp-1096461,HfBeAu2,2.01037192875
mp-1096479,MgAgAu2,0.887094143333334
mp-1096566,YSbAu2,1.108875576674108
mp-1096579,KBaAu2,0.38554504318750005
mp-1096588,NaYAu2,0.855134663749993
mp-1096642,YMnAu2,1.5310659830172422
mp-1096687,NaPbAu2,0.841500306249997
mp-1096693,LiSbAu2,0.9310863158049331
mp-1096699,HfPdAu2,1.868239156458365