material_id,formula,formation_energy_per_atom
mp-1214654,Ba2LaNb(CuO4)2,-2.695172661785714
mp-1228503,Ba2PrNb(CuO4)2,-2.684856453333332
mp-16786,Sr2EuNb(CuO4)2,-2.586823074642858
mp-18490,Sr2SmNb(CuO4)2,-2.7053234082142863
mp-694896,NaCa2V3(CuO6)2,-2.332695993818964
mp-1101271,TiMn3Cu2(PO4)6,-2.352840376249544
mp-1101389,Ti3MnCu2(PO4)6,-2.6662736462718932
mp-1101412,TiV3Cu2(PO4)6,-2.5406721955886242
mp-1101722,V3Cu2Sn(PO4)6,-2.415337218690476
mp-1176676,Mn3VCu2(PO4)6,-2.258302291156949
mp-752444,Ti3VCu2(PO4)6,-2.7165216054960313
mp-757713,Fe3CoCu2(PO4)6,-2.064893238829365
mp-758293,Mn3CoCu2(PO4)6,-2.126687164490284
mp-758420,VFe3Cu2(PO4)6,-2.230364133829364
mp-759517,V3FeCu2(PO4)6,-2.389746036051587
mp-759729,V3Cu2Sb(PO4)6,-2.375604631607143
mp-759932,Ti3Cu2P6WO24,-2.656150896051587
mp-760018,V3Cu2Te(PO4)6,-2.308814013458994
mp-766010,NbV3Cu2(PO4)6,-2.503698217996032
mp-773538,CrFe3Cu2(PO4)6,-2.179638083273809
mp-775221,Fe3Cu2Sn(PO4)6,-2.182999239523809
mp-775289,Mn3CrCu2(PO4)6,-2.228276082823618
mp-775338,V3Cu2Ni(PO4)6,-2.333801654662698
mp-775994,Ti3CrCu2(PO4)6,-2.7055280024404773
mp-775996,TiFe3Cu2(PO4)6,-2.311330954755291
mp-776009,Ti3CoCu2(PO4)6,-2.601178078551586
mp-776012,Ti3FeCu2(PO4)6,-2.661499568829365
mp-776025,Ti3NbCu2(PO4)6,-2.746191013829365
mp-776055,Fe3Cu2Sb(PO4)6,-2.186573832440476
mp-776124,Fe3Cu2Te(PO4)6,-2.132457079292327
mp-776125,Ti3Cu2Sn(PO4)6,-2.679191422579364
mp-776142,NbFe3Cu2(PO4)6,-2.313281258273809
mp-776173,Ti3Cu2Sb(PO4)6,-2.625377506051587
mp-777144,Ti3Cu2Te(PO4)6,-2.601190781514551
mp-777517,Ti3Cu2Ni(PO4)6,-2.604259947440476
mp-778993,V3Cu2P6WO24,-2.417059763829366
mp-780130,Mn3Cu2Ni(PO4)6,-2.125205874490285
mp-792972,Mn3Cu2Sn(PO4)6,-2.22614999629584
mp-867991,MnV3Cu2(PO4)6,-2.398631803494115
mp-1173246,Sr2Y4Fe2Cu2O13,-2.7931175373913053
mp-1193833,Cu2PbSe2(ClO3)2,-1.207498128437499
mp-1194948,Ba2Cu2Te2P2O13,-2.278679284172336
mp-1211417,Mg2Cu2H2CO9,-1.46470708796875
mp-1213385,Cu2H5C3N3O5,-0.8781954147916671
mp-1218649,Sr2Y4Fe2Cu2O13,-2.798261756956522
mp-561861,KMg2V3(CuO6)2,-2.234244228612499
mp-740757,Mg2Cu2P2(H4O5)3,-1.7898350989177492
mp-2222760,MgFeCu2SnS4,-0.503976176666666
mp-1218771,Sr2NdCu2RuO9,-2.116429621500001
mp-697156,BaCu2P2H2O9,-2.169046367611608
mp-1100802,Zr8MnCu2(PO4)12,-3.048232040755567
mp-1199575,Ba2Cu2Te4Br2O11,-1.78235770079365
mp-1202845,LiCu2Si12(H3C)27,-0.17352475792344102
mp-1204058,Zn3Cu2H14(SO9)2,-1.439818714679487
mp-1223629,La4ZnCu2MoO12,-2.751361338499999
mp-2218188,Na2MgCu2TeO6,-1.60908122703544
mp-555953,Na2Cu2Si4H4O13,-2.240989840910345
mp-695887,K3Cu2P4HO14,-2.3181469421488092
mp-705486,U3Cu2H10(CO10)2,-2.058801875743242
mp-772865,Li3V6Fe4(CuO12)2,-2.048156287692307
mp-773087,Li2MgCu2(SiO3)4,-2.659573449126984
mp-781859,LiCu2P3H8O13,-1.734619883972663
mp-807977,Li3V6Fe4(CuO12)2,-0.386731452051282
mp-849424,LiCu2P3(HO5)2,-2.021118499986772
mp-21963,YTl5Cu2(NO2)12,-0.803201384356062
mp-555459,CeTl5Cu2(NO2)12,-0.8182768570833341
mp-559047,Rb5CeCu2(NO2)12,-1.051087150852272
mp-583424,Cs5CeCu2(NO2)12,-1.045203975869906
mp-683928,K5CeCu2(NO2)12,-1.043263368210227
mp-770478,Na6Cu2As(CO4)4,-1.7672365417508922
mp-771150,Na6Cu2P(CO4)4,-1.9134845561351281
mp-780401,Li6Cu2C4SO16,-1.9158619354310331
mp-780565,Na6Cu2C4SO16,-1.869260778992271
mp-2222817,MgFeCu2SnS4,-0.534036294444443
mp-2222841,MgCu2SnHgS4,-0.482672061388888
mp-2222882,MgZnCu2SnS4,-0.6422873744444441
mp-2223896,MgCoCu2SnS4,-0.5180589399999991
mp-2226450,MgMnCu2SnS4,-0.603748351992336
mp-1218486,Sr2YTlCu2O7,-2.244482196025641
mp-1218759,Sr2NdTlCu2O7,-2.219826564294872
mp-1228402,Ba2NdTlCu2O7,-2.180424118141026
mp-1228434,Ba2LaTlCu2O7,-2.194981044102564
mp-1236494,BaLiYCu2O5,-2.123262977833333
mp-2215898,BaYMgCu2O5,-2.148349149
mp-705604,BaLaFe2Cu2O11,-1.437402303529412
mp-1227594,BaSrY4(CuO5)2,-3.046324297777778
mp-1198752,Cu2Pb5C(SO7)3,-1.4888197447656242
mp-1215417,ZnCu2Ge(SeS)2,-0.6451603524609371
mp-1076076,La7SmCo6(CuO12)2,-2.4821057234999993
mp-1076528,BaSr3Co2(CuO6)2,-1.81822000375
mp-1218930,Sr2CaCu2(BiO4)2,-2.074565263333333
mp-1076681,BaSr7Co6(CuO12)2,-1.8959943397499992
mp-1218561,Sr3Pr3Mn2Cu2O13,-2.6740871759070473
mp-1218600,Sr2YCr(CuO4)2,-2.3602953514285723
mp-1218764,Sr2TbCu2IrO8,-2.184737254761903
mp-1218811,Sr2HoCu2RuO8,-2.261148191785712
mp-1218839,Sr2EuTa(CuO4)2,-2.65263352302381
mp-1218849,Sr2GdCu2IrO8,-2.291955524285714
mp-1218868,Sr2GdCu2RuO8,-2.240228336428571
mp-1218882,Sr2GdCr(CuO4)2,-2.358294982857143
mp-1228203,Ba4CaCu2CO9,-2.447661500000001
mp-1228493,Ba2La3Nd(CuO5)2,-2.99609303625
mp-1235464,BaLiYCu2O5,-2.023947172833334
mp-2218552,Cs2Ce2Mg(CuS3)2,-1.4761335568700251
mp-2231373,Ba2Pr4Mg(CuO5)2,-2.668686993245614
mp-2233102,MgMn2V2(CuO4)2,-1.867214933390804
mp-1192807,Cu2Te2Pb(ClO3)2,-1.316245677948717
mp-1193551,SrCu2Se2(ClO3)2,-1.53724508997596
mp-1227859,Ca3Cu2Ni(PO4)4,-2.6416569270604393
mp-554401,BaCu2Te2(ClO3)2,-1.655935796410256
mp-556868,SrCu2Te2(ClO3)2,-1.649155009871794
mp-600236,Cu2H10C6S3N4,-0.13735058490000002
mp-686268,Cu2H4C4N3O,0.299386118392857
mp-1215643,ZnCu2Ge(SeS)2,-0.636034740585937
mp-1215668,ZnCu2Sn(SeS)2,-0.657577606835937
mp-2222784,MgCu2SnHgS4,-0.5454990969444441
mp-2223602,MgCoCu2SnS4,-0.5249903166666661
mp-2240049,MgMnCu2SnS4,-0.644585197547891
mp-1218884,Sr2CaCu2Bi2O9,-1.888037666562501
mp-1042547,Sr2YFeCu2O7,-2.349893651923076
mp-1042702,Sr2YCu2NiO7,-2.190567669230769
mp-1043039,Sr2YMnCu2O7,-2.392616454840849
mp-1046088,Sr2YTiCu2O7,-2.7388020137179483
mp-1046186,Sr2YCu2SnO7,-2.375008713076922
mp-1046226,Sr2YCu2BiO7,-2.3169824026923083
mp-1046275,Sr2YCu2SbO7,-2.354595901923077
mp-1046311,Sr2YCu2AgO7,-2.101632293589743
mp-1208765,Sr2TmGaCu2O7,-2.504226895961539
mp-1214167,Ca2PrGaCu2O7,-2.457869006858973
mp-1214174,Ca2LaGaCu2O7,-2.484004618269231
mp-1360171,Sr2YVCu2O7,-2.4958555296153833
mp-541323,Sr2NdGaCu2O7,-2.4651680761538453
mp-541324,Sr2ErGaCu2O7,-2.501707244807692
mp-541325,Sr2HoGaCu2O7,-2.498758068653845
mp-541327,Sr2TbGaCu2O7,-2.495934459166666
mp-541330,Sr2SmGaCu2O7,-2.47877228826923
mp-541331,Sr2PrGaCu2O7,-2.4550767803205122
mp-541332,Sr2LaGaCu2O7,-2.481028387884615
mp-542434,Sr2YCoCu2O7,-2.282733135384615
mp-556575,Sr2YGaCu2O7,-2.485577612499999
mp-560285,Sr2GdCoCu2O7,-1.863403503461539
mp-653925,Sr2DyGaCu2O7,-2.497128751858973
mp-662575,Sr2EuGaCu2O7,-2.351575582884615
mp-1214571,Ba2YCoCu2O7,-2.217448923461538
mp-1214586,Ba2SmCoCu2O7,-2.208653907692307
mp-1214590,Ba2PrCoCu2O7,-2.184156434358974
mp-1214600,Ba2NdCoCu2O7,-2.194819214038461
mp-1214652,Ba2LaCoCu2O7,-2.209517288461538
mp-1214661,Ba2HoCoCu2O7,-2.227665543846153
mp-1214693,Ba2DyCoCu2O7,-2.227006853589744
mp-1214699,Ba2ErCoCu2O7,-2.230605012692307
mp-1214711,Ba2EuCoCu2O7,-2.078962150769232
mp-1214814,Ba2GdCoCu2O7,-2.20933424576923
mp-1218472,Sr2YFeCu2O7,-2.292760634999999
mp-1173253,Sr2YCoCu2O7,-2.281222641153846
mp-1224180,InGaCu2(TeSe)2,-0.43921763976562606
mp-1233924,MgCr2Cu2(WO4)4,-1.9707606386000012
mp-1234839,MgCr2Cu2(WO4)4,-1.949895136599999
mp-1353956,Ba4CaCr4Cu2F28,-3.2303737761538462
mp-1355181,Ba4CaV4Cu2F28,-3.35318299102564
mp-1358947,Ba4CaFe4Cu2F28,-3.036485640769231
mp-2226178,MgZnCu2SnS4,-0.656515686666665
mp-2228938,K4MgNb2(CuS4)2,-1.146353219647058
mp-2229431,Rb4MgV2(CuS4)2,-1.189450297941175
mp-2229574,Rb4MgNb2(CuS4)2,-1.158320551470587
mp-2229594,K4MgV2(CuS4)2,-1.184682172588234
mp-2232997,MgCu2Ag(SO5)2,-1.518904996354166
mp-698797,Sr3La9Mn10(CuO18)2,-2.789676929071839
mp-1209217,SrLa4Mn3(CuO9)2,-2.10382411656404
mp-1173197,Sr8Ce5Nd3(CuO12)2,-2.985339086488095
mp-2231419,Ba2Pr4Mg(CuO5)2,-2.607287166929824
mp-2231603,Ba2Nd4Mg(CuO5)2,-2.72957244868421
mp-2232197,MgCu2W2(O3F2)2,-2.087687112999999
mp-1200198,Cd2Cu2P2SO17,-1.197625222991071
mp-1202278,Cu2H12C4Br3N,-0.31226008011363604
mp-1225935,Cu2AgBiPbS4,-0.488174187129629
mp-1200513,BaCu2Ge3(HO5)2,-1.8724596987500002
mp-2230596,Ba2Pr4Mg(CuO5)2,-2.539402041140351
mp-1208800,SrCa2Cu2(BiO4)2,-2.009764091999999
mp-1208863,Sr2YCu2(BiO4)2,-2.17106221
mp-1209034,Sr2LaCu2(BiO4)2,-2.167302735666667
mp-1209149,Sr2DyCu2(BiO4)2,-2.18199323911111
mp-1221671,Na2Cu2Si5(H3O8)2,-2.239827272266407
mp-731109,Zn2Cu2CNCl7,-0.7049501234615381
mp-776330,Li4Cu2C4SO16,-1.761879871141975
mp-779142,Na4Cu2C4SO16,-1.7349848645561932
mp-1227223,CaMnV4(CuO6)2,-2.224869395896552
mp-1227505,CaV4Co(CuO6)2,-2.104995042000001
mp-1043147,Sr2YCrCu2O7,-2.418698892692308
mp-1043436,Sr2YCu2MoO7,-2.309563151153845
mp-1046305,Sr2YTaCu2O7,-2.6153823155641023
mp-1177424,Li4Mn3V3(CuO8)2,-2.009036653111658
mp-1177426,Li4Fe3Cu2Sn3O16,-1.713951242083332
mp-1215622,ZnCu2SnSe3S,-0.640685842441406
mp-1219621,RbCu2H3(SO5)2,-1.580277127013888
mp-1221084,NaCu2H3(SO5)2,-1.57246645167385
mp-1223515,KCu2H3(SO5)2,-1.589814590333333
mp-1226431,Cu2Bi8Pb3Se3S13,-0.635833396018319
mp-2215829,BaYMgCu2O5,-2.222631854
mp-2215844,BaYMgCu2O5,-2.309898804999999
mp-2232212,MgCu2W2(O3F2)2,-2.191449979666666
mp-2232902,MgTlCu2(SeO5)2,-1.261647625813802
mp-2233248,MgCu2Ag(SeO5)2,-1.185776101334635
mp-2233356,MgCu2Ag(SO5)2,-1.5587774951041662
mp-2235569,Sr3Co2Cu2S2O5,-1.768450222142857
mp-2240691,MgZnCu2SnS4,-0.692295134444444
mp-754442,Li4Cu2Ni3Sb3O16,-1.616225494047618
mp-756989,Li4Mn3Fe3(CuO8)2,-1.685430084897373
mp-757000,Li4Mn3Cr3(CuO8)2,-1.8855426545402292
mp-760932,Li4Ti3Fe3(CuO8)2,-2.179272114761904
mp-763275,Li4Co3Cu2Sb3O16,-1.661013059761905
mp-765704,Li4Fe3Cu2Sb3O16,-1.7485581429761892
mp-771073,Li4Mn3Co3(CuO8)2,-1.423419782754515
mp-774503,Li4Cr3Cu2Sb3O16,-1.94861138047619
mp-774653,Li4Mn3Cu2Sn3O16,-1.839431304004516
mp-776391,Li4Fe3Co3(CuO8)2,-1.433941277619047
mp-781494,Li4Ti3Mn3(CuO8)2,-2.312349553468802
mp-1218348,Sr4Cu2MoWO12,-2.415467997999999
mp-759001,Mg2Cu2P2(H4O5)3,-1.7903260654329
mp-1218932,Sr2CaCu2(BiO5)2,-1.791456592352942
mp-1223243,La2Cu2SeSO2,-2.333242023730468
mp-1228576,Ba2La2Fe2Cu2O11,-2.304988900263157
mp-1235536,BaLiYCu2O5,-2.120593879833333
mp-706229,Ba2La2Fe2Cu2O11,-2.310242369999999
mp-1173247,Sr3LaCu2HgBiO10,-2.20235133263889
mp-1177342,Li4V3CoCu2(PO4)6,-2.418952804779762
mp-1177395,Li4Mn3CoCu2(PO4)6,-2.312346233624589
mp-1177494,Li4CrFe3Cu2(PO4)6,-2.310603819779762
mp-1223921,K2VCo6Cu2As5O24,-1.6680551033
mp-1233215,RbMgCu2H3(SO5)2,-1.693163901644737
mp-1233327,RbMgCu2H3(SO5)2,-1.7031814748026322
mp-1233370,RbMgCu2H3(SO5)2,-1.659681622171053
mp-1234197,MgZn3Cu2H14(SO9)2,-1.4715705341875
mp-1234288,Rb4MgV4Cu2(PO6)4,-2.357856820604396
mp-1234553,MgZn3Cu2H14(SO9)2,-1.4719035014375002
mp-1234713,Rb4MgV4Cu2(PO6)4,-2.3661775982967033
mp-1235006,MgZn3Cu2H14(SO9)2,-1.4719308331875
mp-1235141,RbLiCu2H3(SO5)2,-1.6340410226096491
mp-1235164,RbLiCu2H3(SO5)2,-1.635665490504386
mp-1236531,RbLiCu2H3(SO5)2,-1.615637964714912
mp-776613,Li4TiCu2Ni3(PO4)6,-2.326652072113094
mp-777855,Li4NbFe3Cu2(PO4)6,-2.366866301529762
mp-778677,Li4TiFe3Cu2(PO4)6,-2.399087382363094
mp-1218640,Sr2YCu2BiPbO8,-2.160022519999999
mp-1218854,Sr2CeYCu2RuO10,-2.544132465882352
mp-1227882,BaSrCoCu2(SO)2,-1.507791632777778
mp-1228298,Ba3SrTl2Cu2HgO10,-1.867928634166668
mp-2229175,Sr4MgMn2Cu2(SO3)2,-2.012891819168357
mp-2229265,Sr4MgFe2Cu2(SO3)2,-1.905982037058824
mp-1214627,Ba2SrY2Cu2PtO10,-2.5342192222222213
mp-642804,KCu2P2H3(O4F)2,-2.00633767279365
mp-728378,Cu3P2NO6,-0.924111364315476
mp-1216363,VCu3(SeS)2,-0.7908617862109371
mp-1216381,VCu3(TeSe)2,-0.586063451002603
mp-1217991,TaCu3(TeSe)2,-0.610303749419269
mp-1218032,TaCu3(SeS)2,-0.8109799696276041
mp-1220411,NbCu3(TeSe)2,-0.624553617252603
mp-1220452,NbCu3(SeS)2,-0.802290943710937
mp-1201854,Tl4Cu3(B9O22)2,-1.743110028091787
mp-1218506,Sr4Cu3NiO8,-2.035834488750001
mp-1220008,RbTa7(CuO7)3,-2.787171089026041
mp-1193268,Cu3H2(CO4)2,-1.333698502500001
mp-1226082,Cu3Ni(CO5)2,-1.032609569062501
mp-1250066,Y8Cu3(SiS7)3,-1.6283461622142852
mp-1259975,Y8Cu3(SiSe7)3,-1.435726833120536
mp-1335238,Y8Cu3(SnS7)3,-1.519131251785713
mp-1338522,Y8Cu3(GeS7)3,-1.534994922214284
mp-1338706,Y8Cu3(GeSe7)3,-1.384192515834821
mp-680446,Cu3P4Se4Br3,-0.463800321579506
mp-1194267,Cu3TePbO8,-1.101937983589743
mp-1203923,Cu3B6H2O13,-2.127567617604166
mp-1221747,MnGa2(CuSe2)3,-0.6622063826661351
mp-1218082,Ta6Cr3Cu3C2,-0.18728279492857103
mp-1046177,Sr2YCu3O7,-2.182880351153845
mp-1096848,Ba2YCu3S7,-1.318593579423076
mp-1147544,Ba2TlCu3O7,-1.60004058525641
mp-19813,Ba2GdCu3O7,-2.170353308076923
mp-20324,Ba2LuCu3O7,-2.195898728589743
mp-20674,Ba2YCu3O7,-2.176878082692307
mp-20936,Ba2PrCu3O7,-2.143885436666665
mp-21451,Ba2SmCu3O7,-2.169248834615385
mp-22719,Ba2NdCu3O7,-2.155610362499999
mp-622105,Ba2DyCu3O7,-2.188257008974358
mp-622108,Ba2TmCu3O7,-2.1958138603846162
mp-622110,Ba2ErCu3O7,-2.19325951576923
mp-622210,Ba2LaCu3O7,-2.168934142307692
mp-622211,Ba2EuCu3O7,-2.036092927692308
mp-6616,Ba2HoCu3O7,-2.190162129230768
mp-985569,Sr2YCu3O7,-2.213596892692307
mp-1216869,V2Cu3H6O11,-1.468724036931818
mp-1217232,U6Cu3Ni3Sb8,-0.39512608849999903
mp-1224609,In2Ga(CuSe2)3,-0.55722721869791
mp-1224939,Ga3Cu3(Te2Se)2,-0.40644915609375604
mp-1275560,V2Cu3NiO6,-1.621221091249999
mp-2232653,MgMn3Cu3O8,-1.61704582591954
mp-554994,Ta2Tl3Cu3S8,-0.9094283984166671
mp-557905,Cu3Mo8Br2O23,-1.73850463548611
mp-1199983,Cu3Mo(HO2)4,-1.25145947484375
mp-1101275,TiCu3(PO4)4,-2.227194775079364
mp-1178492,Cu3Sn(PO4)4,-2.045093923482142
mp-1203941,La4Cu3MoO12,-2.675753382499999
mp-1225320,Fe2Cu3(Sn3Se8)2,-0.581215616944444
mp-755952,VCu3(PO4)4,-2.069254364107143
mp-756007,Li3Cu3(PO4)2,-2.063703354955357
mp-756462,CrCu3(PO4)4,-2.01205066202381
mp-758020,LiCu3(CO3)3,-1.436100701458333
mp-758178,Li2Cu3(CO3)3,-1.54720642009804
mp-758427,Li2Cu3(CO3)3,-1.571255108921569
mp-758450,LiCu3(CO3)3,-1.463514761458333
mp-772046,NbCu3(PO4)4,-2.196926841190476
mp-775137,CoCu3(PO4)4,-1.898489949940475
mp-775168,MnCu3(PO4)4,-1.985597141104269
mp-775297,FeCu3(PO4)4,-1.974806886607143
mp-779257,Li3Cu3(PO4)2,-2.066128764330356
mp-780043,Cu3Sb(PO4)4,-1.990310899940475
mp-1198524,Cu3TePbO7,-1.213376653680555
mp-1200788,Cu3P8(Se2Br)3,-0.40300316093526606
mp-1202203,Cu3P4(SBr)3,-0.49954658142857006
mp-1204573,Cu3P8(Se2I)3,-0.32350189093526704
mp-1213388,Cu3MoSO9,-1.447196947321429
mp-559307,Cu3P4(SI)3,-0.39573858489010905
mp-559558,Cu3P8(S2Cl)3,-0.5457013773571421
mp-649944,Na2Cu3(SiO3)4,-2.419738111440887
mp-680135,Cu3Bi7(PbS5)3,-0.6172918947321421
mp-697994,Cu3H4SO8,-1.259109093906249
mp-1190785,CsDy2Cu3S5,-1.426628589384467
mp-1190996,CsGd2Cu3Se5,-1.336279976033993
mp-1191238,CsSm2Cu3Se5,-1.317937244670357
mp-1192137,Er2TlCu3S5,-1.323273260530303
mp-1192205,KHo2Cu3Se5,-1.323695663997158
mp-1192275,KEr2Cu3Se5,-1.3243278785426131
mp-1192367,CsHo2Cu3Se5,-1.317630173306719
mp-1209004,Sc2TlCu3Se5,-1.038703492982958
mp-1209018,Sc2TlCu3S5,-1.251640933712121
mp-16884,RbEr2Cu3Se5,-1.323529165838068
mp-17344,RbEr2Cu3S5,-1.469203079999999
mp-17929,RbHo2Cu3S5,-1.464414154090907
mp-18540,CsEr2Cu3S5,-1.424489330672346
mp-18672,CsDy2Cu3Se5,-1.321803900427931
mp-542482,CsEr2Cu3Se5,-1.296321139876893
mp-557249,K2UCu3S5,-1.180327861090908
mp-581696,CsLu2Cu3Se5,-1.299182470427932
mp-581749,CsTm2Cu3Se5,-1.310480808761267
mp-6182,CsTb2Cu3Se5,-1.325631329064296
mp-638086,K3Th2Cu3S7,-1.551446760616665
mp-865972,KTm2Cu3Se5,-1.317912484451706
mp-1223957,K4MgCu3F12,-2.6440644967
mp-1224040,K4MgCu3F12,-2.6369363617
mp-2240510,BaMgCu3O4,-1.132798319444444
mp-18713,Ba2Li(CuO2)3,-1.8243083702777771
mp-6496,Ba2Na(CuO2)3,-1.788666265531609
mp-571541,Sr8In4Cu3N5,-0.5929313110833331
mp-1221292,Na2VCu3S4,-0.836921530275861
mp-1233180,MgTi4(CuO4)3,-2.451955780416666
mp-1233258,MgTi4(CuO4)3,-2.585640531916667
mp-2216838,MgMn4(CuO4)3,-1.582967561836207
mp-2216900,MgCu3(SnO3)4,-1.62776173775
mp-2217464,MgTiCu3O4,-1.6542456487037032
mp-2221131,MgCu3(NiO3)4,-0.9947762387500001
mp-752865,Li4Mn5Cu3O16,-1.695254821892445
mp-755091,Ti2Cu3Te3O16,-1.699190995277777
mp-756606,Li4Fe5Cu3O16,-1.441424980119048
mp-758477,Mn3Cu3(TeO8)2,-1.327962687796935
mp-760579,Ti3Cu3(TeO8)2,-1.929822914305555
mp-777917,Li4V5Cu3O16,-2.053016501904762
mp-1224530,In3Cu3SiSe8,-0.672734595249999
mp-1224891,Ga3Cu3SiSe8,-0.7138755214166661
mp-1204591,V2Cu3H6O11,-1.481253698068181
mp-1225068,Ga3Cu3(Te2Se)2,-0.40283281442709
mp-1194777,Cu3Hg2(Te3O8)2,-1.264609348703703
mp-1228519,Ba2LaCu3O7,-2.122819494615384
mp-1046126,Ba2Mg2Tl2Cu3O10,-1.771964924561404
mp-1046130,Ba2Tl2Zn2Cu3O10,-1.493573890350878
mp-1076678,Sr6Ca2Co5Cu3O20,-2.0269124125
mp-1076880,La7SmCo5Cu3O20,-2.336524488611112
mp-1076893,Ba2Sr6Co5Cu3O20,-2.002691699583333
mp-1099812,Ba2Sr2CoCu3O10,-1.9030297644444452
mp-1100068,BaSr7Co5Cu3O20,-2.014222325000001
mp-1100085,Ba3SrCoCu3O10,-1.8930662438888881
mp-1173179,SrLa7ZnCu3O16,-2.9494840866071432
mp-1173225,Sr6La14Mn17(CuO20)3,-2.766690718448277
mp-1173245,Sr6La3Ti3Cu3O20,-3.050746223571429
mp-1177220,Li4V3Cu3(WO8)2,-2.048118113690476
mp-1177254,Li4V2Co3Cu3O16,-1.6045636769047622
mp-1223744,K2Mg5Cu3(AsO4)6,-2.0605444748625
mp-1378312,Li4Ti2V3Cu3O16,0.40340119749999903
mp-2230035,MgTi2Nb2(CuO4)3,-2.412529940083332
mp-2230195,MgTi2Nb2(CuO4)3,-2.4149748955833332
mp-2230545,MgTi3Nb(CuO4)3,-2.453318989249999
mp-653154,Ba2Ca2Tl2Cu3O10,-1.927288874561404
mp-754563,Li4Ti2Mn3Cu3O16,-2.049872580135468
mp-757923,Li4Nb2Fe3Cu3O16,-1.932639969761905
mp-760136,Li4TiCu3(PO4)4,-2.385289850544217
mp-761342,Li4Co2Cu3Sb3O16,-1.605521719404762
mp-765052,Li4Co3Cu3(TeO8)2,-1.503482172023809
mp-765617,Li4Fe2Cu3Te3O16,-1.515248503333333
mp-770974,Li4Mn3Nb2Cu3O16,-2.041322726325944
mp-771157,Li4V3Cu3(SbO8)2,-1.9715920851190472
mp-775183,Li4V3Cu3(TeO8)2,-1.878152336309524
mp-775260,Li6CoCu3(PO4)4,-2.2637045582857143
mp-775279,Li4Mn3Cu3(SbO8)2,-1.7737449316830882
mp-777897,Li4Ti2V3Cu3O16,-2.265666790714287
mp-849772,LiTi3Nb(CuO4)3,-2.5026851721666663
mp-1218582,Sr2YCu3(PbO4)2,-2.05867603875
mp-1228282,Ba4Nd8Cu3PtO20,-2.966289585277778
mp-1228504,Ba2YCu3(PbO4)2,-2.036984270625
mp-1196623,Cu3Ag2Bi7Pb3S16,-0.591569599946236
mp-1228431,Ba2Cu3BrClO4,-1.839681496818182
mp-1218814,Sr2La6Cu3IrO16,-2.807783269285715
mp-1227234,CaMn2Cu3(RuO6)2,-1.6214159822931031
mp-1227237,CaNb2Ga2(CuO4)3,-2.19798307525
mp-1227781,CaGa2Cu3(RuO6)2,-1.66822865125
mp-2230186,MgTi2Nb2(CuO4)3,-2.475730687583334
mp-697492,BaV2Cu3(HO5)2,-1.834242859027778
mp-14824,Sr2HoCu3(PbO4)2,-2.068203139062499
mp-14825,Sr2ErCu3(PbO4)2,-2.070863570624999
mp-20041,Sr2EuCu3(PbO4)2,-1.9495498040625001
mp-20437,Sr2SmCu3(PbO4)2,-2.050194317812499
mp-22301,Sr2DyCu3(PbO4)2,-2.066837558854166
mp-22543,Sr2GdCu3(PbO4)2,-2.051774470624999
mp-22601,Ba2Ca2Cu3HgO8,-2.04182094828125
mp-653811,Sr2NdCu3(PbO4)2,-2.037795966093749
mp-1208789,Sr2Pr2Tl2Cu3O10,-2.088198813684212
mp-1208833,Sr2La2Tl2Cu3O10,-2.124479814035089
mp-1209015,Sr2Ca2Cu3(BiO5)2,-2.048504478947368
mp-1214003,Ca4Sm2Cu3(ClO2)4,-2.618477574285714
mp-2218174,Sr2MgCu3(ClO2)2,-1.522926409583333
mp-2218226,Ba2MgCu3(BrO2)2,-1.50025213125
mp-1196467,Rb2Cu3P4(O3F)4,-2.3677273721428582
mp-1199324,Na2Cu3H8(SeO4)4,-1.29452204491314
mp-18089,Sr2HoCu3(PbO4)2,-2.074358707499999
mp-555139,Zr2Cu3H32(O8F7)2,-1.7658367864925362
mp-699550,KCu3Ag(MoO4)4,-1.630486525556666
mp-707485,K4Cu3As4(HO8)2,-1.665504469189655
mp-1220892,NaTi3Nb(CuO4)3,-2.500493812568964
mp-1227254,CaMnCu3(RuO4)3,-1.532994115396551
mp-1227263,CaMn3Cu3RuO12,-1.676032143189655
mp-2231811,MgTi3Nb(CuO4)3,-2.52985683975
mp-39888,NdTi3Fe(CuO4)3,-2.5290841673749993
mp-1198047,KCu3P3(O4F3)2,-2.31710733767517
mp-1199313,RbCu3P3(O4F3)2,-2.21301967197279
mp-554726,KNaCu3S3O13,-1.7307985233871102
mp-721072,Cu3As2H2PbO10,-1.357299999305556
mp-2240378,MgCu3TeS3Cl,-0.619815891574073
mp-560161,ZnCu3H6(ClO3)2,-1.171645663749999
mp-1189352,ZnCu3H6(ClO3)2,-1.176382942638888
mp-557210,Cu3NiH6(ClO3)2,-1.141104620138889
mp-1200772,Ba2YCu3(PbO4)2,-2.0395879659375
mp-643629,Sr2YCu3(PbO4)2,-2.061446950937499
mp-1210224,Na5Cu3As4HO16,-1.699898647177466
mp-1218726,Sr2NdCu3(PbO4)2,-2.040797570468749
mp-1218727,Sr2PrCu3(PbO4)2,-2.032013606354167
mp-1412519,Na2Cu3H8(CO2)8,1.138886043168685
mp-504939,V2Cu3H24(OF)12,-1.661529099245282
mp-505404,Mn2Cu3H24(OF)12,-1.611703360299285
mp-510474,Na2Cu3H8(CO2)8,-1.230347476561043
mp-554200,Sr2YCu3(PbO4)2,-2.053959336249999
mp-694913,CaTa2Ga2(CuO4)3,-2.4600192211083343
mp-699474,Sc2Cu3H36(NF)12,-0.6985897656153841