material_id,formula,formation_energy_per_atom
mp-571638,Rb2Cu(BrCl)2,-1.581548951428571
mp-6027,Ba2Tl2CuO6,-1.784656988333334
mp-755903,Li2Mn2CuO6,-1.7659428256844292
mp-21496,LiLa4CuO8,-3.167302960238095
mp-555827,Sr2Cu(BiO3)2,-2.040110309090909
mp-753425,LiCuCO3,-1.680298696388889
mp-26311,Li5Cu(PO4)2,-2.519766820684523
mp-26312,Li4Cu(PO4)2,-2.465980925174602
mp-26794,Li3Cu(PO4)2,-2.34340052887755
mp-27048,LiCuPO4,-2.160609169710883
mp-27063,Li2CuPO4,-2.29163598203869
mp-27064,LiCuPO4,-2.187474859710883
mp-758430,LiCuPO4,-2.175894123996598
mp-758498,Li2CuSiO4,-2.325726348958333
mp-758520,LiCuPO4,-2.151815675068026
mp-759640,LiCuCO3,-1.6533590126388882
mp-779046,Li5Cu(PO4)2,-2.520201857872024
mp-11923,Rb2TaCuS4,-1.348462691541666
mp-11924,Rb2TaCuSe4,-1.203747837088541
mp-1195238,CuPb2I3O2,-0.7690508609374991
mp-1210450,Rb2TaCuS2,-0.30375754247222003
mp-1210710,Rb2TaCuSe2,-0.138915502836804
mp-1210898,Rb2NbCuS2,-0.5001059104166661
mp-1212400,K2VCuSe2,-0.29196128194791604
mp-1212580,K2NbCuS2,-0.38677551408333205
mp-1212584,K2VCuS2,-0.389570449916666
mp-1212810,K2NbCuSe2,-0.265251469447916
mp-15147,K2VCuS4,-1.2642837243124991
mp-15219,Rb2VCuS4,-1.280063318124999
mp-15220,K2VCuSe4,-1.136528660484375
mp-15221,Rb2NbCuS4,-1.316151084999999
mp-15222,Rb2NbCuSe4,-1.192566984296874
mp-15223,Cs2NbCuSe4,-1.218640726085667
mp-669330,KCe2CuSe6,-1.502879523631249
mp-680171,KEu2CuS6,-1.692016484474999
mp-8972,K2TaCuSe4,-1.182607521401041
mp-9003,K2NbCuSe4,-1.1693720467343751
mp-9763,K2NbCuS4,-1.293870691812499
mp-2226128,Na2MgCuO2,-1.236246591293102
mp-17323,TbCu(BO2)5,-2.80553174632353
mp-17395,TmCu(BO2)5,-2.820029439460785
mp-18595,LuCu(BO2)5,-2.81441601367647
mp-752638,LiCuCO3,-1.683997756388889
mp-1103775,LiVCuO4,-1.757965889047619
mp-1104607,LiVCuO4,-1.9426213761904751
mp-1215172,ZrVCuS4,-1.278676187857142
mp-1215192,ZrTiCuS4,-1.508505769761903
mp-1215284,ZrCrCuS4,-1.25666696
mp-1215285,ZrCrCuSe4,-1.051019159196428
mp-1215325,ZrInCuS4,-1.16520316595238
mp-1216370,VCuSnS4,-0.8468081835714271
mp-1216377,VCrCuS4,-0.9873202235714281
mp-1216811,TiVCuS4,-1.24990183690476
mp-1216880,TiCrCuSe4,-0.9791751218154751
mp-1216899,TiCuSnS4,-1.026801796190475
mp-1216972,TiCrCuS4,-1.186376183333333
mp-1216991,TiCoCuS4,-1.022926947619047
mp-1219597,RbFeCuF6,-2.480824043055555
mp-1219603,RbCrCuF6,-2.667428340277777
mp-1219629,RbCoCuF6,-2.203727652499999
mp-1224102,InCuSnS4,-0.5585588987499971
mp-1224440,HfCrCuSe4,-1.061237163482142
mp-1224445,HfCrCuS4,-1.287711176428569
mp-1225926,CsGaCuF6,-2.6384551924616853
mp-1225961,CsScCuF6,-3.17359076069445
mp-1225976,CsInCuF6,-2.566403055702426
mp-1225979,CsCoCuF6,-2.280394028295019
mp-1226116,CoCuNiS4,-0.657063199285712
mp-1226276,CrCuRhSe4,-0.696057939196427
mp-1226299,CrCuSnS4,-0.8034213842857121
mp-1226334,CrCuSnSe4,-0.676084879196427
mp-1228857,CsTlCuF6,-2.181459000833276
mp-1228881,CsMnCuF6,-2.557582425842911
mp-1228892,CsCrCuF6,-2.681499691628353
mp-1228920,CsFeCuF6,-2.501172787183908
mp-1228931,CsCuNiF6,-2.094899824166641
mp-1228942,CsCuRhF6,-2.157748554961685
mp-1229021,CsVCuF6,-2.753815709406131
mp-505131,LiVCuO4,-1.960942226904761
mp-753366,Li2CoCuO4,-1.556975962083333
mp-754664,Li2TiCuO4,-2.384689698750001
mp-755826,Li2FeCuO4,-1.655145788333333
mp-756256,Li2CuNiO4,-1.394011847708333
mp-756431,Li2CuSnO4,-1.841039110208333
mp-756739,LiVCuO4,-1.89558859047619
mp-771518,Li2CrCuO4,-1.8760103602083331
mp-773500,LiMnCuO4,-1.632520183752053
mp-775462,LiFeCuO4,-1.403321443333332
mp-850358,LiCuSbO4,-1.74098419047619
mp-1219689,Rb6CuAgO4,-1.175864809513888
mp-773844,Li2V3CuO8,-2.233874698154763
mp-1208044,Tm2Cu(GeO4)2,-2.722467856538462
mp-1208539,Tb2Cu(GeO4)2,-2.711039288717948
mp-1208916,Sm2Cu(GeO4)2,-2.686976771538461
mp-1209738,Pr2Cu(GeO4)2,-2.654972089871794
mp-1212393,Ho2Cu(GeO4)2,-2.714034473076922
mp-1212657,Gd2Cu(GeO4)2,-2.679272920384615
mp-1213038,Er2Cu(GeO4)2,-2.718419099230768
mp-1213218,Dy2Cu(GeO4)2,-2.712502619871794
mp-1213273,Eu2Cu(GeO4)2,-2.409798263461539
mp-1215574,ZnGaCuSe3,-0.778020199088541
mp-1221781,MnInCuTe3,-0.43717943015804606
mp-1224181,In2CuSe3I,-0.703218356480654
mp-1226976,Cd2GaCuS4,-0.6652364282812451
mp-1227031,Cd2InCuSe4,-0.720794460755207
mp-1235594,LiCuAuO2,-0.921144608666666
mp-1238828,TiCrCuS4,-1.121496964761904
mp-1239122,ZrCrCuS4,-1.180671574285714
mp-1239136,HfCrCuS4,-1.210745809999998
mp-1273241,Li2MnCuO4,-1.788768224324712
mp-1275349,Li2CoCuO4,-1.511618457708334
mp-1283607,Li2CoCuO4,-1.511538730208334
mp-1788667,Ca2CuWO6,-2.366801852
mp-2219379,MgMn3CuO8,-1.828736276830239
mp-2219529,MgV3CuO8,-2.222899427307692
mp-2219898,MgCr3CuO8,-1.849604368076922
mp-2223050,MgVCuO3,-2.007361598333334
mp-2225000,MgFe5CuO8,-1.486804810999999
mp-2225369,Y2MgCuO4,-2.397989175625
mp-2225569,NaMgCuO2,-1.674372079275861
mp-2226498,MgCoCuO2,-1.251700705
mp-2227051,MgMnCuO2,-1.485566496586206
mp-2227268,LaMgCuO3,-2.370473005833334
mp-2228221,MgMnCuO2,-1.514541416586206
mp-2228575,MgMn4CuO8,-1.956333849766009
mp-2230846,MgMn5CuO12,-1.771000795508167
mp-2230860,MgMn5CuO12,-1.7660127002450101
mp-2232938,MgFe5CuO8,-1.566362956999999
mp-2242195,MgMn4CuO8,-1.854480585480296
mp-558708,Nd2Cu(GeO4)2,-2.669091326923076
mp-766810,LiCo2CuO6,-1.199945246333334
mp-1224343,In4CuAg3Te8,-0.369100797500003
mp-1078111,CuMoS4N,0.31943076642857204
mp-1079491,LiIn2CuSe4,-0.8024477978645821
mp-1198030,Sr2CuCO5,-2.383950875000001
mp-1222542,LiIn2CuTe4,-0.6531144491666661
mp-1223913,In2CuAgSe4,-0.540193613281253
mp-1223929,InCuGeS4,-0.70224098595238
mp-1224129,InCuSnSe4,-0.49408969375000605
mp-1224138,In2CuAgS4,-0.6947142281249981
mp-1224210,InCuGeSe4,-0.6293799172916661
mp-1224246,In2CuAgTe4,-0.365978430000001
mp-1224814,Ga2CuAgS4,-0.6463600932812491
mp-1224837,Ga2CuAgSe4,-0.54638358890625
mp-1224851,GaCuGeSe4,-0.6582163459821421
mp-1224861,Ga2CuAgTe4,-0.33787493500000204
mp-1224922,GaCuSnSe4,-0.50585748517857
mp-2225309,MgCuPO4,-2.3736336028061222
mp-2225329,MgCuPO4,-2.2370988385204083
mp-26477,LiCuPO4,-2.194518209710884
mp-554497,CuSb2(XeF5)4,-1.746806239259259
mp-1104904,CuBClO4,-0.960199477023809
mp-10335,Ba2CuTeO6,-2.159168554666666
mp-1078741,Ba2CuOsO6,-2.111882844
mp-1079351,Sr2CuMoO6,-2.362045463
mp-1173638,Sr10Cu(RuO5)4,-2.441998443714285
mp-1205359,Ba2UCuO6,-2.989170562999999
mp-505618,Ba2CuWO6,-2.4447410720000002
mp-510294,Sr2CuWO6,-2.472931554
mp-546295,Sr2CuOsO6,-2.148619267999999
mp-6252,Sr2CuTeO6,-2.211730652666666
mp-6312,Sr2CuCO5,-2.379524217777779
mp-758844,Li3CuSiO4,-2.307222163333333
mp-1191467,Cs2CuP2O7,-2.406190851966337
mp-1191495,K2CuTeO7,-1.127953296469696
mp-1192826,CuH6SO7,-1.376971555333333
mp-1213114,CuAgGeSe3,-0.44574477561631903
mp-1228492,CaFe2CuO5,-1.837995583472222
mp-26262,LiCu(PO3)4,-2.342573588716932
mp-556590,BaFeCuF7,-2.860497917
mp-6598,K2Cu(PO3)4,-2.480498010161653
mp-707170,CuH6SO7,-1.375951694999999
mp-753471,LiCuBO3,-2.050203122499999
mp-754637,NaCuP2O7,-2.215141074151364
mp-755492,NaCuP2O7,-2.230210036424092
mp-757306,LiCu(PO3)4,-2.329360579550264
mp-758176,LiCuPO4,-2.15103355042517
mp-758192,LiCuPO4,-2.131405547568026
mp-759346,LiCuPO4,-2.181389073193027
mp-761190,LiCu(PO3)3,-2.345475127304422
mp-761911,Li2Cu(PO3)4,-2.438749373696741
mp-765980,Li4CuSi2O7,-2.556426115952381
mp-769965,Li2Cr3CuO8,-1.940310578333332
mp-772456,Li2Mn3CuO8,-1.8200563025328411
mp-776597,NaCu(PO3)4,-2.326563028330596
mp-776749,Li2V3CuO8,-2.207901110833334
mp-755347,LiCuTeO4,-1.495786136428571
mp-774473,LiNbCuO4,-2.228757806904762
mp-775214,LiVCuO4,-1.908880393333332
mp-775311,LiCuSbO4,-1.6718918408333332
mp-776319,LiNbCuO4,-2.240341774047619
mp-887127,Li2V3CuO8,-2.234349322619049
mp-1042208,BaTaCuO5,-2.4114366015416673
mp-1042217,BaCuSbO5,-1.672624496874999
mp-1042220,BaCuReO5,-1.8040691384375012
mp-1042556,BaCuWO5,-1.863508000624999
mp-1079292,CuPb2(ClO2)2,-0.9917793988888881
mp-1217227,U2Cu(PO10)2,-1.182306175971429
mp-1224737,Fe2CuNiPt4,-0.169561733749999
mp-1045777,Ba2ZnCuSn2F14,-2.97128607875
mp-1045910,Ba2MgMn2CuF14,-3.204031762043104
mp-1046122,Ba2CaCuNi2F14,-2.9602448630000002
mp-1076118,Sr6Ca2Co7CuO20,-1.910818052916667
mp-1076175,Sr4Ca4Co7CuO20,-2.102748167916666
mp-1076273,Sr2Ca2Co3CuO10,-2.067791364791667
mp-1076470,Sr2Ca6Co7CuO20,-2.111510172499999
mp-1076483,La4Sm4Co7CuO20,-2.590046626597223
mp-1076513,La7SmMn7CuO20,-2.8850790566810343
mp-1076874,La5Sm3Co7CuO20,-2.299798638541667
mp-1099678,Sr3CaCo3CuO10,-2.055613165000001
mp-1099952,Ca7MgCo7CuO20,-2.084839194305555
mp-1173562,NaV3Fe2CuO12,-2.032373284809438
mp-1176950,Li8Mn7Cu(PO4)12,-2.419005245893397
mp-1176990,Li6V3Cu(PO4)6,-2.566677349946428
mp-1177097,Li8Fe7Cu(PO4)12,-2.358172422926065
mp-1177150,Li5Mn3Cu(PO4)4,-2.500294795483834
mp-1177362,Li4Mn5Cu(PO4)6,-2.43906891552114
mp-1226046,CsInCu(PO3)6,-2.477068066821443
mp-1228525,Ba2CuAg3(SnS4)2,-1.011424582812498
mp-1228743,Ba2MnCu(P2O7)2,-2.775747880522838
mp-1229314,CuAg64Hg3(As4S15)4,-0.29355725176504505
mp-1232997,LiCuP4(RuO7)2,-2.117588916450216
mp-1233190,CaCuP4(RuO7)2,-2.182436180844156
mp-1233208,CaCuP4(RuO7)2,-2.194725158116882
mp-1233269,MgCuP4(RuO7)2,-2.130449517435063
mp-1233299,MgCuP4(RuO7)2,-2.112717042889609
mp-1233437,Ho2MgCu(SiO3)4,-3.10861001825
mp-1233490,MgCuP4(RuO7)2,-2.104069926980518
mp-1233546,MgCuP4(RuO7)2,-2.124180718344155
mp-1233726,MgCuP4(RuO7)2,-2.087328205162336
mp-1234062,CaCuP4(RuO7)2,-2.170821294025974
mp-1234593,CaCuP4(RuO7)2,-2.192192373116883
mp-1235071,LiCuP4(RuO7)2,-2.123011315541125
mp-1235332,LiHo2Cu(SiO3)4,-3.167528512666666
mp-1235836,LiCuP4(RuO7)2,-2.118546743722943
mp-1235972,LiHo2Cu(SiO3)4,-3.122948169666665
mp-1335844,ZnCuHg4As7S12,0.248379421233332
mp-1354763,Ba2MgCuNi2F14,-2.862715408499999
mp-1357049,Ba2ZnCuNi2F14,-2.585690638749999
mp-1361075,Ba2CaCuSn2F14,-3.21821492675
mp-2217323,Sr2MgCuWO6,-2.443940936818182
mp-2217843,MgZn2CuWO6,-1.85679721590909
mp-2218581,NdMgCu(WO4)2,-2.383122517884615
mp-2218758,NdMgCu(WO4)2,-2.395191347884615
mp-2219016,DyMgCu(WO4)2,-2.4394666528205122
mp-2226152,Sr2MgCuTeO6,-2.199713191969697
mp-2227830,DyMgCu(WO4)2,-2.403325858205128
mp-2228480,MgCd2Cu(PO4)2,-2.067870709591836
mp-2228781,K6MgCu(SiO4)2,-2.110254036027777
mp-2230010,Tb2MgCu(GeO3)4,-2.458704513416665
mp-2230033,MgMnV4CuO12,-2.235969695417423
mp-2230878,MgMnV4CuO12,-2.231910859627949
mp-2232098,Rb4MgCuSi2O7,-2.259384182666666
mp-2232860,Na4MgCu(AsO4)2,-1.860225137844827
mp-2233403,YMgCu(WO4)2,-2.395905491153845
mp-2233909,YMgCu(WO4)2,-2.429325895769231
mp-2240406,Sr2MgCuMoO6,-2.3961526977272722
mp-2241115,MgCuBi(WO4)2,-1.9538563180769222
mp-677406,CuH12N2(Cl2O)2,-0.9073141247619051
mp-677563,ZnCuHg4As7S12,-0.29874029756666703
mp-677647,BaSrCuCO4,-1.251624553124999
mp-677659,SrLaCuRuO6,-2.329233926928572
mp-690554,Sr5La5Cu(NiO5)4,-2.653813956714286
mp-691074,SrPrGaCuO5,-2.493067601018518
mp-694919,Sr5Nd5Cu(NiO5)4,-2.463527875928571
mp-698602,Sr5La5Mn9CuO30,-2.698360105727586
mp-703291,Ba3CuP2Br3O7,-2.187041110892856
mp-727412,Ba3CuP2Br3O7,0.16640732660714302
mp-738741,Sr2La6Mn7CuO24,-2.81997787863793
mp-757599,Li6Mn3Cu(PO4)6,-2.427732596541256
mp-766078,LiV3Fe2CuO12,-2.038248302280701
mp-769476,Li6Fe3Cu(PO4)6,-2.385153085696427
mp-774262,Li6Cr3Cu(PO4)6,-2.509142135446429
mp-1180458,Na2FeCu(CN)6,0.144475910452586
mp-1218844,Sr2FeCu(PbO3)2,-1.9862944716666662
mp-686442,Ba20Y10Cu(Ru3O20)3,-2.7923873914
mp-10350,BaNdCuBO5,-2.8401014112962963
mp-1214316,BaTbCuBO5,-2.870600246759259
mp-1214336,BaSmCuBO5,-2.853969338240741
mp-1214529,BaGdCuBO5,-2.848131011018518
mp-1214680,Ba2V2CuClO7,-2.529880418461537
mp-14970,BaLaCuBO5,-2.862746425462963
mp-1228469,Ba2Y2Co3CuO10,-2.347866097222223
mp-2224761,Sr2MgCu(IO)2,-1.587120175625
mp-2228100,Sr2MgCu(BrO)2,-1.752472410624999
mp-2228288,Sr2MgCu(OF)2,-2.372563876875
mp-556016,FeCuC5N6O,0.46590135857142806
mp-619126,Ba2TlCuHgO5,-1.713955417083334
mp-1105196,ZnCuH3ClO3,-1.275127442638888
mp-1176404,Na2CuCSO7,-1.859828576688218
mp-1176743,LiCuHSO5,-1.6591049707870371
mp-1182304,Mn2CuH12(NO2)4,-0.724769258550448
mp-1191652,CuH2PbSO6,-1.537511169545453
mp-1203139,FeCuH4S2O13,-1.180788276428571
mp-1213421,CuAsPb2SO9,-1.632068392857142
mp-25456,Li2CuPCO7,-2.074571577609127
mp-25460,Li3CuPCO7,-2.207437915357142
mp-2912169,CrCuPPb2O9,-1.699787879409013
mp-690725,TlCuHSO5,-1.4706447307870372
mp-696931,TlCuHSeO5,-1.130355233547455
mp-728764,CuPPb2SO9,-1.8994435972959192
mp-746774,Mn2CuH12(NO2)4,-0.49963423595785406
mp-752698,Li2CrCu(PO4)2,-2.396412481139456
mp-754351,K2CuPCO7,-2.0471636053452382
mp-756337,Li2CoCu(PO4)2,-2.274752868639456
mp-756517,Na3CuBPO7,-2.218105001380572
mp-757133,Li2VCu(PO4)2,-2.441380532568028
mp-758722,Li2FeCu(PO4)2,-2.3214841189965982
mp-765574,Li2MnCu(PO4)2,-2.401786538134529
mp-767151,Li2CuNi(PO4)2,-2.270798574353741
mp-767526,Na3CuPCO7,-2.135967272983137
mp-767534,Na2CuPCO7,-2.035364312283457
mp-768589,Li3CuAsCO7,-1.89437849326923
mp-770477,Li2CuAsCO7,-1.748669122013889
mp-770795,Na3CuBSO7,-2.045733297754199
mp-771032,Na2CuAsCO7,-1.715090886688217
mp-771122,Na2CuBSO7,-1.96506136703544
mp-771162,Na3CuSiCO7,-2.06908040877984
mp-771969,Li2CuCSO7,-1.870488594097222
mp-772051,Li3CuSiCO7,-2.156497160769231
mp-772153,Na3CuAsCO7,-1.8366424839721471
mp-772561,Li2CuSb(PO4)2,-2.245474240068026
mp-772722,Na3CuBAsO7,-1.9214568754465071
mp-772726,Na3CuCSO7,-1.86774612627984
mp-772819,K3CuPCO7,-2.132872829337911
mp-778969,Li2CuBi(PO4)2,-2.274928490068027
mp-698375,CuH12C5S4N,-0.20237062739130401
mp-1516899,NaPrCuWO6,-2.284303716804598
mp-559038,CuH12C4(NO)6,-0.83284235887931
mp-1218747,Sr2Mn2Cu(AsO)2,-1.448966391206897
mp-1232336,Sr2CdCu(SO)2,-1.843880208124999
mp-1232354,SrNb2CuO6F,-2.8982316404545463
mp-2226869,Sr2MgCu(BrO)2,-1.751440323125
mp-2227379,Sr2MgCu(ClO)2,-1.8475903731249992
mp-2241898,Sr2MgCu(IO)2,-1.5870214256250001
mp-1173270,Sr2La2MnCuO8,-2.8604462180665022
mp-1193339,K2CuP4H8O15,-1.746472212269047
mp-1194694,Mn2CuH16(C2N11)2,-0.086117924130268
mp-1229016,Ba10Zn4Cu(WO6)5,-2.607296228
mp-1234765,Ho2MgCu(SiO3)4,-3.07481007675
mp-2217957,Sr2MgCuWO6,-2.499470907727273
mp-2218048,Ba2MgCuTeO6,-2.134559377424241
mp-2227277,Sr2MgCu(PO4)2,-2.575340561734693
mp-2227424,Sr2MgCu(PO4)2,-2.640556328877551
mp-2234096,Ba2MgCuWO6,-2.280799592272727
mp-583429,CuH8C6(N3O)2,-0.167714384782609
mp-653930,CuAs2Pb8Cl5O9,-1.558126801599999
mp-697818,Sr2Pr2MnCuO8,-2.672682234376026
mp-728890,CuAgC3S3N7,0.512488608319942
mp-15472,Ba4LiCu(CO5)2,-2.48175173962963
mp-6841,Ba4NaCu(CO5)2,-2.459740442854406
mp-753353,Sr4LiCu(CO5)2,-2.526757375185186
mp-1199172,K9CuS8(NO9)2,-1.6532642143486842
mp-1199734,CuH36S8N11O18,-0.819370954797297
mp-1021669,Ba2CuC(NO)2,-1.472068381875
mp-1021672,Sr2CuC(NO)2,-1.508643626875
mp-1102721,LaTa2CuClO7,-2.971487966222222
mp-1147590,La2Nb4Cu(ClO7)2,-2.7384559752173923
mp-1147632,Ca2CuC(NO)2,-1.475696531875
mp-1147663,CaNb2CuBrO7,-2.489917295833333
mp-1182216,Ca2Ta3CuBrO10,-3.011496670411764
mp-1182284,Ca2Nb3CuBrO10,-2.812130469705881
mp-1209879,NdNb2CuClO7,-2.749878845208332
mp-1211313,LaTa2CuBrO7,-2.9512445983055553
mp-1214691,Ba2CaCu(HgO3)2,-1.7479503254166682
mp-1218695,Sr2La2CuRuO8,-2.690403942142857
mp-1218720,Sr2Pr2MnCuO8,-2.771543827233169
mp-1218751,Sr2Nd2MnCuO8,-2.7801809523522163
mp-1218754,Sr2La2MnCuO8,-2.83121695270936
mp-1227406,Ca2La2Ti3CuO12,-3.307551843000001
mp-1228051,Ba4YCu(WO6)2,-2.8144427359999993
mp-1232359,SrNb2CuClO7,-2.520188404583333
mp-2222887,Sr2MgTlCuO5,-1.979083725333333
mp-2226422,Ba2MgCuHgO4,-1.5378058297222221
mp-624909,LaNb2CuBrO7,-2.77292445625
mp-669354,LaNb2CuClO7,-2.791481189999999
mp-698483,U2CuAs2(HO)24,-1.662293323113206
mp-699498,U2CuP2(HO)24,-1.819446011684636
mp-1105354,Ca2FeCuSO3,-2.117465202812499
mp-1227472,BaYCoCuO5,-2.337840216666667
mp-20239,Sr2MnCuSO3,-2.214889160053879
mp-505311,Sr2CrCuSO3,-2.2969254753125
mp-505312,Sr2FeCuSO3,-2.1175037396875
mp-620364,CaSmCuClO3,-2.7177586035714283
mp-9425,Sr2GaCuSO3,-2.29533932625
mp-1179202,SrCuH4(CO2)4,-0.185247866666666
mp-1190630,KCuAg2(CN)4,0.13291803666667001
mp-1192412,RbCuAg2(CN)4,0.074918677847222
mp-1192822,CsCuAg2(CN)4,0.07284034141762401
mp-1205438,SrCuH4(CO2)4,-1.448279712222222
mp-23686,CaCuH4(CO2)4,-1.442214210277778
mp-600520,SrCuH4(CO2)4,-0.7669281986111101
mp-24103,CuH12Br4(NO)2,-0.8307283045238091
mp-24559,Rb2CuH4(Cl2O)2,-1.4753120046153851
mp-604996,CuH12N2(Cl2O)2,-0.9179119885714281
mp-628617,Cs4K2Cu(SiO4)2,-2.269421870477687
mp-696384,K2CuH4(Cl2O)2,-1.4617665718846151
mp-721415,CuH12N2(Cl2O)2,-0.9136483988095231
mp-1094045,Sr2CuAg2(SO)2,-1.536353856481481
mp-1094069,Sr2Cd2Cu(SO)2,-1.442099103888888
mp-1147635,K2Cd2Cu(SO)2,-0.8960191110555551
mp-1147747,Na2Li2Cu(IO)2,-1.210503186602809
mp-1228285,Ba8Y4Cu(WO8)3,-3.04800620575
mp-1232329,K2Zn2Cu(SO)2,-1.024523731055554
mp-1232330,Na2CuAg2(SO)2,-0.7452108145657721
mp-1232335,Na2Li2Cu(BrO)2,-1.410119233269476
mp-1232337,K2CuNi2(SO)2,-0.6703408321666651
mp-1232341,K2Li2Cu(BrO)2,-1.395634285685185
mp-1232348,K2Li2Cu(IO)2,-1.190971845685184
mp-2241579,Sr2MgCu(OF)2,-2.323079351875
mp-1181627,CuH14C4(NO2)4,-0.728072960887097
mp-1181838,CuH14C4(NO2)4,-0.777662603951613
mp-1182135,CuH8C2(NCl2)2,-0.15471521911764702
mp-1182523,CuH14C4(NO2)4,-0.6253882750806451
mp-1193439,Sr2CuSe2(ClO3)2,-1.983313650745191
mp-1194919,Eu2CuH4(SO6)2,-2.023437850238095
mp-1195153,Tb2CuH4(SO6)2,-2.199245394206349
mp-1196599,CuH8N2(OF2)2,-1.141347706470588
mp-1196772,Na2CuH12(SO7)2,-1.527113143314793
mp-1197302,CuH18C6(SeCl2)2,-0.33816854369959704
mp-1197774,RbFeCu(PO4)2,-2.283027867637362
mp-1197914,CuH6C2SeCl,-0.29274075225852203
mp-1198103,CuAs7PS7Br,-0.41775022497899006
mp-1198901,Cs2CuH8(SeO6)2,-1.3758735037599141
mp-1198907,CaUCu(PO7)2,-1.941857447462405
mp-1199425,CuH14C4(NO2)4,-0.9279357850806451
mp-1199822,CuH20C6(NCl2)2,-0.38920802924242404
mp-1199970,KFeCu(PO4)2,-2.284025564733515
mp-1201390,CuH12C2(NO2)6,-0.6536370924242431
mp-1201655,CaCuGeH2O5,-1.94182586
mp-1202137,Ca2CuAs2(H2O5)2,-1.9466097386842112
mp-1202646,CuH6C2SeI,-0.217414212485795
mp-1203110,CuH10C2(NCl2)2,-0.607360385394736
mp-1203211,CuH4C10(N2F7)2,-1.102203376515151
mp-1203607,CuH5C3NO4,-0.8365279307142851
mp-1203697,CuAs7PS7Cl,-0.438877462478991
mp-1203931,Tl2CuH12(SeO7)2,-1.222832215688844
mp-1204374,K2Cr2Cu(PO7)2,-1.931295399704082
mp-1210299,Rb2Be2Cu(O3F4)2,-1.53470461368421
mp-1210745,Na2CuH2(SO4)2,-1.404779663350574
mp-1212661,K2Be2Cu(O3F4)2,-1.7245090931315792
mp-1213465,CuAgAs2H3O8,-1.301473553527777
mp-1213503,CuH6S2(NO4)2,-0.44328875223684105
mp-1213944,CrCuAsPb2O9,-1.560037010535713
mp-1214912,Be2Tl2Cu(O3F4)2,-1.726983416666667
mp-1215088,CoCuH28(SO11)2,-1.350806480185184
mp-1238512,CuH6S2(NO4)2,-0.7038889943421041
mp-24038,K2CuH12(SO7)2,-1.557527835790321
mp-24196,Tl2CuH12(SO7)2,-1.424111553924731
mp-24197,Rb2CuH12(SO7)2,-1.558720560322579
mp-24228,Na2CuH6C2O9,-1.568837855012932
mp-24362,CuH6CN2O3,-0.879322515384615
mp-504531,CuH20S2(NO7)2,-1.244384119743589
mp-510018,Rb2CuH12(SeO7)2,-1.362084831925403
mp-542944,Cs2CuH12(SO7)2,-1.557165369171301
mp-553890,CuSb2H12(O3F4)2,-1.732292058620689
mp-554335,K2CuH12(SeO7)2,-1.354456001909274
mp-554882,DyCuTe2ClO6,-1.998295626136363
mp-555884,ErCuTe2ClO6,-2.001534555984848
mp-556926,CuAs2S4(O2F3)4,-1.984851546666666
mp-556946,Rb2V2Cu(PO6)2,-2.374126140225564
mp-559681,Dy2CuTe5Br2O13,-1.9865104581159412
mp-559895,ErCuTe2BrO6,-1.964573269848485
mp-560533,CuH8C4(NO3)2,-0.878184068571429
mp-561081,CuH10C2(NO)8,-0.58319941974138
mp-568659,CuH8C2(N6Cl)2,-0.211079414800001
mp-570040,CuH5C5NCl,-0.08186360259615301
mp-570909,CuTe4H12C4N,-0.19311234530303
mp-600154,K2CuH8(CO3)4,-1.484509008685185
mp-703398,CuH20Se2(NO7)2,-1.082071012812499
mp-703515,CaCuSiH2O5,-2.269173210749999
mp-703531,CuSiH8(O2F3)2,-1.927760468999999
mp-706287,KCuPH2O5,-1.914859854439286
mp-707052,CuH12Se(NO)4,-0.48356626056107904
mp-707413,CuH12N2(OF2)2,-1.212773540952381
mp-707852,CuH8CN5Cl3,-0.023612992638889004
mp-709886,CuH5Pb4SO11,-1.444932398920453
mp-720299,ZrCuH8(O2F3)2,-2.0638353135
mp-720876,Cs2CuH12(SO7)2,-1.484982750300333
mp-721317,Na2CuH4(SO5)2,-1.7073151706715062
mp-721471,CuPH4O5F,-1.735830520803572
mp-722280,LiCuH4Cl3O2,-1.3246097580303031
mp-722963,CuH20S2(NO7)2,-0.9697553597435891
mp-723175,K4CuP6(H4O11)2,-2.1758304022404182