material_id,formula,formation_energy_per_atom
mp-9751,Al2Ge2O7,-2.702367327272727
mp-9843,Sr3(AlP2)2,-1.163182541878307
mp-1220636,Nb3Al2Mo3,-0.24839006134999703
mp-1096814,Al2ZnS4,-1.079045481607142
mp-33335,MgAl2O4,-3.342973633571429
mp-34144,MgAl2O4,-3.360014531428571
mp-34728,Al2CuO4,-2.6576012366666673
mp-34978,Al2FeO4,-2.837116017857142
mp-530146,MgAl2O4,-3.356793371071424
mp-530567,Al2FeO4,-2.870119049523809
mp-532094,Al2CoO4,-2.885069807857142
mp-674336,Al2CoO4,-2.848396663095238
mp-1025204,Al2FeS4,-1.028540154285713
mp-1025314,Mn(AlS2)2,-1.117893886847289
mp-1078069,Al2ZnS4,-1.0768946016071421
mp-1096787,Al2Zn2S5,-1.023891978308531
mp-1096817,Al2ZnS4,-1.065424809464284
mp-1221807,Mn3Al2V3,-0.23885616422413802
mp-33302,MgAl2O4,-3.349386166071428
mp-34330,MgAl2O4,-3.319463689285714
mp-530164,MgAl2O4,-3.362630751071422
mp-530284,Al2CoO4,-2.807157129464286
mp-530381,Al2CoO4,-2.833668649642857
mp-530395,Al2FeO4,-2.421558767321428
mp-530513,Al2FeO4,-2.7416413992857143
mp-531283,Al2CuO4,-2.654581983035714
mp-531530,MgAl2O4,-3.353518839999999
mp-531793,MgAl2O4,-3.336769948749999
mp-532212,Al2CoO4,-2.7983361075714273
mp-1203225,Al2(SeO4)3,-1.349273287472426
mp-10405,Yb(AlSi)2,-0.38081982900000005
mp-10435,Y(AlSi)2,-0.413991692
mp-10436,Tb(AlSi)2,-0.42367822599999905
mp-10521,Y(AlGe)2,-0.40969330599999904
mp-10580,La(AlGe)2,-0.5518281930000001
mp-10581,Nd(AlGe)2,-0.5195775754999971
mp-1070483,Sr(AlGe)2,-0.39380389399999904
mp-1096785,Al2Zn2S5,-0.9867581083085301
mp-1096822,Al2ZnS4,-1.044666906607142
mp-1147656,Ca(AlSb)2,-0.34923116799999904
mp-1147766,Ca(AlSn)2,-0.211287779999999
mp-1206416,Ho(AlSi)2,-0.37495848599999804
mp-1206419,Er(AlSi)2,-0.36666187466666406
mp-1206599,Sm(AlGe)2,-0.43664286699999905
mp-1206601,Dy(AlGe)2,-0.48459748100000005
mp-1206602,Tm(AlGe)2,-0.37989074600000106
mp-1206993,Nd(AlSi)2,-0.43643184549999803
mp-1206998,La(AlSi)2,-0.46276653099999904
mp-1207012,Ho(AlGe)2,-0.399051718999999
mp-1207106,Ce(AlSi)2,-0.390076357999994
mp-1207205,Pr(AlGe)2,-0.517172214333331
mp-1208228,Ti3NbAl2,-0.36267744500000004
mp-1232292,Mg(AlGe)2,-0.07666524300000001
mp-1232293,Mg(AlSn)2,0.082330133
mp-1232396,Mg(AlSb)2,-0.033146648999999
mp-12856,Pr(AlSi)2,-0.35958566633333405
mp-13069,Er(AlGe)2,-0.39315426999999803
mp-20151,Eu(AlGe)2,-0.517309679000001
mp-20595,Eu(AlSi)2,-0.404180725
mp-23709,Mg(AlH4)2,-0.144007213181818
mp-29624,Mg2Al2Se5,-1.303387147968749
mp-3833,Mg(AlSi)2,0.027314072999999002
mp-3862,Ca(AlGe)2,-0.48071680000000006
mp-4041,Yb(AlGe)2,-0.44344837900000306
mp-644229,Sr(AlH)2,-0.36472849578571503
mp-6931,Sr(AlSi)2,-0.35023813399999904
mp-7101,Ce(AlGe)2,-0.407976716
mp-7120,Sm(AlSi)2,-0.43423771199999905
mp-7121,Dy(AlSi)2,-0.414561772999999
mp-7157,Tb(AlGe)2,-0.49558742799999805
mp-7158,Lu(AlGe)2,-0.359631457333331
mp-754689,Gd(AlGe)2,-0.43543483799999805
mp-7704,Ca(AlSi)2,-0.35477174999999905
mp-8651,Gd(AlSi)2,-0.36411075999999803
mp-9514,Mg(AlC)2,-0.055014741000000006
mp-1078015,Al2FeS4,-1.060090002857141
mp-1079706,Ti5Al2C3,-0.7375664191666671
mp-1096789,Al2Zn2S5,-0.9823543849751981
mp-1096816,Al2ZnS4,-1.074967317321427
mp-1101762,PrAl2Ag,-0.413611760833334
mp-1179971,Nd2Al2Fe15,-0.035543961315788006
mp-1188126,Pr2Al2Co15,-0.07395646706455701
mp-1188423,Sm2Al2Fe15,-0.05861241736842
mp-1190010,Pr2Al2Fe15,-0.021891233333332
mp-1221708,Mn5Al2V,-0.195568802456897
mp-1295388,Al2NiO4,-2.752948257857144
mp-16484,Ce2Al2Co15,-0.147488668947367
mp-16755,Mg(AlS2)2,-1.445273384999999
mp-9479,Mg(AlSe2)2,-1.221501893482143
mp-977428,YbAl2Cu,-0.49908476958333303
mp-1029975,Al2(CN2)3,-0.609314530909091
mp-2713752,Al2(SO4)3,-2.328635038186275
mp-4202,BaAl2O4,-3.448150932499999
mp-5492,SrAl2O4,-3.45287825595238
mp-559390,CaAl2O4,-3.446380854285714
mp-1222051,MgAl2O4,-3.228128794047619
mp-1215043,CaAl2O12,-0.9375662568888891
mp-1215064,CaAl2O12,-0.8614502500000001
mp-36775,SrAl2O4,-3.446999452380952
mp-560318,Al2(WO4)3,-2.4933879026470582
mp-3828,BaAl2O4,-3.446832076428572
mp-1096794,Al2Zn2S5,-1.026923945530752
mp-1096818,Al2ZnS4,-1.077456207321427
mp-1228951,Al2CO,-1.354071785
mp-1079155,Hf6Al2Pt,-0.5332189888888921
mp-11038,Zr6Al2Fe,-0.30235085444444704
mp-1206477,Hf6Al2Ni,-0.37250686333333505
mp-1214090,Ca(AlH4)2,-0.231357745227272
mp-1224393,Hf6Al2Fe,-0.29023977111110805
mp-1224408,Hf6Al2Co,-0.33273785222222
mp-12760,Zr6Al2Co,-0.340102912222221
mp-13092,Zr6Al2Ni,-0.34655779000000003
mp-29820,Ca3(AlN2)2,-1.366595334583332
mp-1025043,UAl2Cu3,-0.030452839999998003
mp-10897,PrAl2Ni3,-0.526097195277776
mp-1206184,CeAl2Cu3,-0.29771264833333505
mp-1207570,YbAl2Cu3,-0.386068554166667
mp-1215019,Ca10Al2Cu19,-0.14094440906528502
mp-1217305,ThAl2Ni3,-0.5330116516666651
mp-1220172,NdAl2Pt3,-1.082197291250004
mp-1222903,LaAl2Pt3,-1.206610494166663
mp-1225217,EuAl2Ag3,-0.262397057222228
mp-16766,LaAl2Ag3,-0.297770308333331
mp-7225,CeAl2Pt3,-1.036073346666665
mp-1087226,NaAl2Sb,0.143962502440476
mp-1096793,Al2Zn2S5,-0.9821808371974201
mp-1196052,Dy2Al2Fe15,-0.085394759912279
mp-1198100,Tm2Al2Fe15,-0.10083836447368401
mp-1200452,Y2Al2Co15,-0.12968125052631602
mp-29986,La2Al2I,-0.8770519
mp-1185199,La5Al2Ru3,-0.455493359999999
mp-861986,Pr5Al2Ru3,-0.393576453333332
mp-865967,Ce5Al2Ru3,-0.469125033499997
mp-1183015,Al2SiO5,-2.527261643437501
mp-1185517,Mg(AlH4)2,-0.138048836818182
mp-1192488,Al2Te2Cl7,-1.127845848181817
mp-1216185,Y3(AlFe2)2,-0.19475295888888802
mp-1222214,Mg3(AlCu2)2,-0.20376705388888902
mp-1248407,Al2NiPt,1.6159557875
mp-1342803,Al2W2O7,-2.227874006363636
mp-1374068,Al2(WO4)3,-2.402068029411763
mp-1378195,Al2Mo2O7,-2.214164667272727
mp-29110,Al2(FeSi)3,-0.45394824187499905
mp-5065,Al2SiO5,-3.3768698634375
mp-640357,Al2SiO5,-3.120083335937501
mp-707135,Al2Si4O11,-3.284969743235293
mp-725936,BaAl2O8,-1.6234200268181822
mp-12147,Ca3Al2O6,-3.39813622378788
mp-14246,Ba(AlS2)2,-1.754765519880949
mp-3393,Sr3Al2O6,-3.342221047765152
mp-1182706,Nb3Al2N,2.322678551041666
mp-1190604,Nb3Al2C,-0.45651867708333405
mp-1190760,Ta3Al2C,-0.5176629394500051
mp-1191953,Nb3Al2N,-0.767175983541664
mp-18093,Al2Mo3C,-0.21010948375000002
mp-1215060,Al2Cu11B13,0.617689761057691
mp-1215020,Al2(Zn13Pd3)3,-0.301756588399999
mp-1200701,Ca3Al2O12,-1.793036353823529
mp-640266,Ca3Al2O6,-2.861125022727273
mp-11512,LiAl2Ir,-0.8143778916666691
mp-1183135,Al2TcPd,-0.688403215000001
mp-1183136,Al2OsRh,-0.8597437825
mp-1183147,Al2FeRh,-0.696539494999998
mp-1183155,Al2NiOs,-0.607955297499998
mp-1183165,Al2CuPd,-0.5674328900000011
mp-1183795,DyErAl2,-0.45369155802083205
mp-1184820,HoScAl2,-0.45146215453124505
mp-1184824,HoLuAl2,-0.44599874447916904
mp-1184827,HoTmAl2,-0.45404125181249805
mp-1185307,LiAl2Cu,-0.18658568583333202
mp-1185321,LiAl2Au,-0.404253921666665
mp-1185976,MnAl2Tc,-0.31610740323275904
mp-1186555,PmDyAl2,-0.424920303124999
mp-1186559,PmErAl2,-0.417013890208334
mp-1186588,PmHoAl2,-0.422310895624999
mp-1186604,PmLuAl2,-0.40610220354166404
mp-1186619,PmGdAl2,-0.41618293850000004
mp-1186641,PmSmAl2,-0.41498189437499905
mp-1186663,PmTmAl2,-0.416717619374999
mp-1207174,LiAl2Ge,0.075042665416666
mp-1214897,Al2(Ni7B2)3,-0.347799906034481
mp-19872,UAl2Cu,0.26888229750000203
mp-30817,LiAl2Pd,-0.6666604541666651
mp-30819,LiAl2Pt,-0.909099746666665
mp-30821,LiAl2Rh,-0.7617179716666661
mp-862318,LiAl2Ni,-0.489748536666665
mp-862691,Al2FeCo,-0.46805296249999906
mp-862694,Al2IrRh,-1.130865957499999
mp-862695,Al2CoRu,-0.6617507237500011
mp-862715,Al2PdRu,-0.8579669187500011
mp-865989,Al2IrRu,-0.984318068749999
mp-866031,Al2FeIr,-0.6807959575
mp-866284,Al2IrOs,-0.8285853749999991
mp-867125,Al2RuPt,-0.9900710087499961
mp-867319,Al2CoIr,-0.835120557500001
mp-867326,Al2RuRh,-1.008399888749998
mp-867330,Al2FeNi,-0.499208689999998
mp-867775,Al2NiRu,-0.743546901249999
mp-971922,DyYAl2,-0.43846450624999905
mp-972415,YErAl2,-0.43156057333333503
mp-972984,HoErAl2,-0.452723500833332
mp-978515,SmYAl2,-0.426906162499999
mp-979715,YHoAl2,-0.43612007874999703
mp-980662,YTmAl2,-0.43512229500000205
mp-982666,LiAl2Tc,-0.329450549365075
mp-982667,LiAl2Os,-0.48010702583333004
mp-982869,PmYAl2,-0.42511474937500104
mp-984352,Al2CoOs,-0.5402784149999991
mp-1103510,Al2HgSe4,-0.7833482612500261
mp-1104053,Al2HgS4,-1.082598808928577
mp-1104783,Mn(AlS2)2,-1.235700336847289
mp-1104860,Al2ZnSe4,-1.069769712767857
mp-1211680,K4Al2O,0.029391955857143003
mp-1247043,Mg(AlS2)2,-1.45104289428571
mp-1248873,Al2Ni2O7,-1.726363709090908
mp-1252698,Al2Sb2O7,-1.894471980909089
mp-1255912,Mn2Al2O7,-2.254900836896551
mp-1258020,Al2Fe2O7,-1.917318597727272
mp-1260244,Al2Sn2O7,-2.160868516363635
mp-1261252,Ti2Al2O7,-2.9449983001515143
mp-1261949,Al2V2O7,-2.487275749545455
mp-1262076,Al2Bi2O7,-1.7304665399999992
mp-1375270,Al2Cr2O7,-2.220271399090909
mp-1376528,Al2Co2O7,-1.8439676822727271
mp-18503,Al2Re3B,0.193116242916673
mp-27719,Al2CuO4,-2.653946341428571
mp-2908,Al2ZnO4,-3.021072628571429
mp-30084,Al2FeO4,-2.9035625028571412
mp-3536,MgAl2O4,-3.370001377142852
mp-36447,Al2CoO4,-2.863333982142858
mp-36866,Al2CdO4,-2.820343855714285
mp-3807,Al2CdSe4,-1.029442259196428
mp-4842,Al2ZnS4,-1.190503468035713
mp-688785,Al2NiO4,-2.779105725000001
mp-755882,MnAl2O4,-3.047750007561575
mp-756317,Al2HgO4,-2.5423616575
mp-9993,Al2CdS4,-1.12634982232144
mp-1191827,Tb3(AlNi3)2,-0.551967774090909
mp-1191848,Tm3(AlNi3)2,-0.599010835454547
mp-16807,Dy3(AlNi3)2,-0.562937674090908
mp-17141,Er3(AlNi3)2,-0.5896025254545441
mp-30791,Ho3(AlNi3)2,-0.5738117627272711
mp-4577,Y3(AlNi3)2,-0.543428607272726
mp-573541,Sm3(AlNi3)2,-0.495343710909091
mp-580327,Gd3(AlNi3)2,-0.5308673372727291
mp-1182533,Ca3Al2O12,-1.7927941377941172
mp-1204798,Ba3Al2O12,-1.777754299558823
mp-607399,Al2CrCl8,-1.571660076060602
mp-1247837,Al2ZnS4,-1.177109819821427
mp-1182305,BaAl2O6,-2.234444218333333
mp-1194520,Rb4Al2S5,-1.498468691818181
mp-1196014,BaAl2O6,-2.32820202
mp-1204519,Al2PO8,-2.045811932240259
mp-1265553,Al2(FeO3)3,-1.9509585518750001
mp-728271,Al2Br7N,-0.572508283249999
mp-772624,Al2CO,-1.422523865
mp-1101043,TiAl2O5,-3.430002041041667
mp-1245423,Al2FeN3,-0.9238134000000001
mp-1245638,MnAl2N3,-1.046617129655172
mp-1246714,Al2CoN3,-0.856826156249999
mp-1246782,Al2NiN3,-0.7967260623611121
mp-1246874,Al2InN3,-1.153547405208333
mp-1246981,Al2CrN3,-1.151048021041668
mp-1247331,YAl2N3,-1.6920118293750002
mp-1222073,MgAl2O4,-2.741863063571428
mp-1019732,EuAl2O4,-3.413126838214287
mp-1182999,Al2(WO4)3,-2.492457447058822
mp-1201085,Al2P3O13,-1.9602087477182542
mp-1228502,Al2SiAg7,0.008777393733336001
mp-1228522,Al2Zn2S5,-1.127193869895833
mp-1229334,Al2Se3O28,-0.21700739036458302
mp-1329157,Al2(CuO2)3,-1.75783324409091
mp-3094,SrAl2O4,-3.458835004642857
mp-21892,Al2PbO4,-2.893783590000014
mp-725525,K2Al2O7,-1.6459040994999992
mp-1226717,CeTh3Al2,-0.235110346984119
mp-1190359,BaAl2O6,-2.234980159999999
mp-725468,BaAl2O6,-2.003270959999999
mp-10444,Ca2Al2O5,-3.411476938333332
mp-1182191,BaAl2O6,-2.2350711433333332
mp-1193708,Al2(PS3)3,-0.5995079285004761
mp-1218520,SrAl2O4,-3.444500444999999
mp-1227363,CaAl2F10,-3.314568282692306
mp-1228007,BaAl2O4,-3.443908932142856
mp-1228443,Al2Si4Mo3,-0.415967468492063
mp-17129,Sr3(AlN2)2,-1.232596961666667
mp-17133,Ba3(AlN2)2,-1.033622193333334
mp-1189017,Gd5(AlCo)2,-0.309209814999999
mp-28088,Ca5(AlBi3)2,-0.686273707692302
mp-8439,Ca5(AlSb3)2,-0.859342887307689
mp-3361,Ba3Al2F12,-4.072744122794116
mp-4753,Al2SiO5,-3.3748300146875
mp-569564,Th2Al2C3,-0.469433602142856
mp-608551,Ti(AlBr4)2,-1.466108740757575
mp-1228438,Al2ZnS4,-1.130463663035713
mp-1228454,Al2ZnSe4,-1.052454977053571
mp-1228611,Al2PbSe4,-0.9370203223214281
mp-1247890,Al2SiO5,-3.322422384843751
mp-19516,Al2(WO4)3,-2.494557517352938
mp-19521,Al2(MoO4)3,-2.403986258676472
mp-780398,Al2(SeO4)3,-1.734892595266544
mp-1198688,Ca(AlH4)2,-0.24142875204545403
mp-1251718,BaAl2O6,-2.331769617222222
mp-30024,Sr(AlCl4)2,-2.27181765215909
mp-867936,BaAl2O6,-2.118086246666666
mp-1096809,Al2ZnS4,-1.098607519107141
mp-1190090,EuAl2Ge,-0.503950480625
mp-1190136,SrAl2Au3,-0.642451484999999
mp-1196880,Al2SiO6,-2.810445010555556
mp-1197018,Al2GeO6,-2.457153643888889
mp-1202519,Ba3(AlAs2)2,-0.950413470833332
mp-1202948,Ba3(AlP2)2,-0.963656650396823
mp-12441,CaAl2O4,-3.395783402142856
mp-27997,Ca3Al2Ge3,-0.6229662850000001
mp-28392,Sr5(AlSb3)2,-0.8888438565384601
mp-3081,BeAl2O4,-3.352918253928567
mp-3872,Mg(AlS2)2,-1.473232059285711
mp-4934,Al2SiO5,-3.372199139687501
mp-5506,Ba(AlSi)2,-0.269387471999998
mp-570482,Ba(AlGe)2,-0.39657781400000003
mp-5857,MgAl2O4,-3.271102225714285
mp-1025389,LuAl2Ni,-0.6974564229166641
mp-1025458,SmAl2Ni,-0.6044745112500001
mp-1079160,CeAl2Pt,-0.8646705987499991
mp-1079988,La2Al2Ge,-0.7350791429999951
mp-1206051,NdAl2Ni,-0.586138961875
mp-1206143,PrAl2Ni,-0.5692037454166671
mp-1206482,CeAl2Ni,-0.522542427499998
mp-1209732,Pr2Al2Ge,-0.7189316626666651
mp-12781,ScAl2Ni,-0.656923293749999
mp-12782,YbAl2Ni,-0.7040711700000001
mp-13094,YAl2Ni,-0.63966266625
mp-16493,YAl2Co,-0.5264388225000001
mp-16503,HoAl2Ni,-0.6416250387499991
mp-16516,TbAl2Ni,-0.634603844166665
mp-16517,TmAl2Ni,-0.650823310000001
mp-2647075,HfAl2O5,-3.584016893125
mp-29111,Al2Fe3Si4,-0.398391764444444
mp-3034,MgAl2Cu,-0.17485990875000001
mp-31182,ErAl2Ni,-0.6488156025
mp-4930,TiAl2O5,-3.441487001041667
mp-556870,MgAl2O4,-3.262092482857142
mp-567377,Ba(AlSi)2,-0.22000522199999903
mp-569385,DyAl2Ni,-0.634236020416664
mp-630019,GdAl2Ni,-0.6208696287500001
mp-754713,Al2CrO5,-2.8714373228125
mp-9516,Al2SiO5,-3.26604966375
mp-560978,Ba4Al2O7,-3.18657933576923
mp-1217273,ThAl2Ni3,-0.5899844683333301
mp-1217300,ThAl2Fe3,-0.29912739999999904
mp-1217301,ThAl2Co3,-0.31408782916667105
mp-1217328,ThMn3Al2,-0.19884267729885002
mp-1223006,LaAl2Ag3,-0.36598549833333005
mp-1225549,LaAl2Cu3,-0.404831059166665
mp-1226637,CeAl2Ag3,-0.25823952249999704
mp-1226644,CeAl2Cu3,-0.398093601666668
mp-29674,Al2B2Ru3,-0.5191039216666691
mp-1103552,Eu(AlSe2)2,-1.4497954123214272
mp-1103722,Al2PbS4,-1.233530308571437
mp-1103889,Eu(AlS2)2,-1.6562228723214272
mp-1104378,Sr(AlS2)2,-1.7458167221428562
mp-1228740,Ba(AlSe2)2,-1.5790870441964242
mp-36988,Ca(AlSe2)2,-1.4032251023214282
mp-675374,Al2PbSe4,-0.9435391144642841
mp-8422,Sr(AlSe2)2,-1.473838570178571
mp-1079890,Al2CuIr,-0.7419818087500011
mp-29978,Sr5Al2F16,-4.116544838478261
mp-1214910,Al2CdBr8,-1.4495020240909091
mp-28361,Al2CdCl8,-1.5805851863636362
mp-14422,Ca(AlS2)2,-1.696253139642856
mp-14424,Sr(AlS2)2,-1.752220800714285
mp-10669,Ba3(AlGe)2,-0.47830463714285704
mp-10670,Ca3(AlGe)2,-0.603305947142858
mp-10671,Sr3(AlGe)2,-0.49444188142857104
mp-1093553,Al2OsPt,2.24487718508152
mp-1093622,Al2TcPt,2.047585382499999
mp-1093629,MnAl2Fe,2.375522478017241
mp-1093720,Al2TcRh,2.4648398633333333
mp-1093789,Al2CuIr,1.9074067337500011
mp-1093810,MnAl2Ir,2.375843093017241
mp-1093918,Al2CuPd,1.419848051375002
mp-1093958,Al2CoTc,2.685363373333334
mp-1093967,Al2CuRh,1.737347987761246
mp-1095763,Al2OsPd,2.224207353229168
mp-1095825,Al2FePt,1.8646470450000001
mp-1095860,Al2CuNi,1.735505917416448
mp-1095887,Al2CoRh,2.155039567500001
mp-1096042,MnAl2Tc,2.67142759426724
mp-1096052,LiAl2Ru,2.061386435416667
mp-1096100,Al2TcNi,2.455522581250003
mp-1096117,Al2TcIr,2.61089033333333
mp-1096119,Al2CrFe,2.47111191
mp-1096138,LaYAl2,2.254663096458333
mp-1096451,Al2FeRh,2.24359613
mp-1096466,Al2VIr,2.492739418712126
mp-1096521,Al2FeCu,2.058957525
mp-1096538,Al2NiPt,1.6201973225000001
mp-1096570,ScAl2Tc,2.686125009999999
mp-1096576,Al2CuTc,2.236729170475644
mp-1096638,Al2CrIr,2.288346431666667
mp-1096644,Al2OsRh,2.6275855975000013
mp-1096670,ScAl2Os,2.84711723125
mp-1097081,Al2FeTc,2.749572311250001
mp-1097153,LiAl2Co,1.93260864222222
mp-1097168,Al2PdPt,1.166605031250004
mp-1097228,LiAl2Au,1.15133188375
mp-1097254,Al2CrTc,2.685473526785712
mp-1097381,Al2TcAu,1.899565854375001
mp-1097418,YScAl2,2.368993540729168
mp-1097560,Al2OsRu,3.013094389374991
mp-1097597,Al2TcPd,2.069802251083747
mp-1248348,Al2TcNi,2.456407073750004
mp-1248716,Al2OsPd,2.224005810729167
mp-1251595,Al2CuPd,1.418598381375002
mp-1255731,Al2OsRu,1.5158626918749931
mp-1258701,Al2OsRh,1.2901333625
mp-1261855,Al2FeRh,2.2467125075
mp-1262353,ScAl2Os,2.9321218462500003
mp-1264151,LiAl2Ru,2.056103907916666
mp-7068,Sr3(AlSi)2,-0.46661771285714304
mp-7376,Sr3(AlSn)2,-0.601883492857144
mp-7377,Ba3(AlSn)2,-0.519673631428572
mp-9577,Ca3(AlSi)2,-0.47411889500000204
mp-9578,Ba3(AlSi)2,-0.345244661428569
mp-1048803,Al2NiO4,-2.780542017857144
mp-1219763,Pu(AlGa)2,-0.387376867750001
mp-34210,Al2ZnO4,-2.893775984285713
mp-36310,Al2CrS4,-1.153561719999999
mp-36465,Al2FeO4,-2.839391702857143
mp-37614,Al2NiO4,-2.802741493571429
mp-38307,MgAl2O4,-3.3304249749999952
mp-752645,Al2CuO4,-2.621128179285714
mp-1103571,Al2Si2O11,-1.872272627
mp-1182905,Al2Si2O11,-1.487165602333333
mp-1183020,Al2Si2O11,-1.629624678999999
mp-1218678,Sr3(AlIn2)2,-0.33700981407407304
mp-1222257,Mg(AlB14)2,-0.06373658586021401
mp-1228953,Al2GaN3,-1.339016025208333
mp-1247884,Al2ZnS4,-1.046111127321427
mp-34234,Al2NiO4,-2.797017203571428
mp-34782,Al2FeO4,-2.888955597380952
mp-37621,Al2CoO4,-2.8470706285714282
mp-530137,Al2NiO4,-2.793857547142856
mp-530184,Al2NiO4,-2.790265027857143
mp-530459,Al2NiO4,-2.792474794714287
mp-530748,MgAl2O4,-3.342882417142857
mp-530977,Al2CuO4,-2.65944566125
mp-531340,MgAl2O4,-3.338523191122449
mp-531840,MgAl2O4,-3.3608514782653
mp-531917,Al2NiO4,-2.798147601607143
mp-532317,Al2NiO4,-2.798890046714286
mp-532426,Al2CuO4,-2.644029318285715
mp-1096810,Al2ZnS4,-1.189737413749999
mp-3038,Al2HgSe4,-0.825231304821429
mp-3159,Al2CdSe4,-1.075488398482142
mp-5928,Al2CdS4,-1.147233041607143
mp-7906,Al2HgS4,-1.106310683214292
mp-7907,Al2ZnSe4,-1.100773949910713
mp-7908,Al2ZnTe4,-0.7049379838095231
mp-7909,Al2CdTe4,-0.582113531428575
mp-7910,Al2HgTe4,-0.47700404821428505
mp-1183001,Al2(SeO4)3,-1.187602581884191
mp-1192629,Al2Si2O9,-2.5148335423076933
mp-1192644,Al2Si2O9,-2.514989051538463
mp-1192646,Al2Si2O9,-2.516405954615386
mp-1201477,Al2Si2O9,-2.515738767884616
mp-1248282,Al2(BiO3)3,-2.038611583214287
mp-1280463,Al2NiO4,-2.778876522857143
mp-37091,Sr(AlTe2)2,-0.9968879585714281
mp-38394,Ba(AlTe2)2,-1.1324659795238081
mp-1221662,MnAl2Cr3,-0.163298816321839
mp-1228962,Al2Cu2Ni,-0.282570755166659
mp-1006613,Na2Al2(SiO4)3,-2.599684089355717
mp-1019568,CaAl2SiO6,-3.411549716
mp-1019572,CaAl2SiO6,-3.41135347025
mp-1019573,CaAl2SiO6,-3.428106404
mp-1080186,CaAl2Si3O10,-3.0331219615625
mp-1181274,K2Al2(SiO4)3,-2.637075530499999
mp-1222213,Mg2Al2SiO9,-2.543612852500001
mp-1222230,Mg2Al2SiO9,-2.546930431428571
mp-1222886,Li2Al2Si4O13,-2.9542591105555562
mp-1227858,Ca6Al2Fe4O15,-2.750559470925926
mp-1229078,Al2Fe(PO4)3,-2.853053598551587
mp-1229137,Al2Fe3(BiO4)3,-1.999028312
mp-1233307,MgAl2(Si3O8)2,-3.232082622199999
mp-1233408,MgAl2(Si3O8)2,-3.2270451614
mp-1233677,CaAl2(Si3O8)2,-3.315837871999999
mp-1234153,MgAl2(Si3O8)2,-3.2033184914
mp-1235533,LiAl2V4O8,-2.4545296662222222
mp-1236884,CaAl2Si3O10,-3.146547323125
mp-1247587,Ca16Mn14Al2O43,-2.60856280788046
mp-1247609,Ca16Mn14Al2O41,-2.614858552685403
mp-1247619,Ca8Mn6Al2O23,-2.677555829168877
mp-1247668,Ca16Mn14Al2O45,-2.592905008260189
mp-1247683,Ca8Mn6Al2O21,-2.713632696759087
mp-1247697,Ca16Mn14Al2O47,-2.580258014063726
mp-1372169,Al2Fe3(BiO4)3,-1.057924808
mp-2217661,MgAl2(CoO3)2,-2.393225588636363
mp-2217675,MgMn2Al2O6,-2.700828773714733
mp-541152,Al2Si2H4O9,-2.610692871764706
mp-686541,Al2Cd(Si5O12)2,-3.141233772162162
mp-1182031,CaAl2(SiO5)2,-2.319071108333333
mp-1194156,CaAl2(SiO5)2,-2.667525705000001
mp-1194392,SrAl2(SiO5)2,-2.672255224000001
mp-1194492,Al2TeSO9,-2.126607313397436
mp-1218866,SrAl2(Si2O7)3,-2.409176816
mp-1221451,Na2Al2B2O7,-2.946474082391688
mp-559691,Ca2Al2SiO7,-3.443058467916666
mp-1193864,Al2PH3O7,-2.546159664876373
mp-1219246,Sm2Mn2Al2Fe13,-0.034564265571687
mp-1219359,Sm2Al2Fe15C,-0.08029084024999801
mp-1222601,Li3Al2CoO6,-2.613757498333333
mp-1227726,Ca4Mn2Al2O11,-2.898616175308529
mp-1234955,CaAl2V4O8,-2.438684386666667
mp-1235052,LiAl2V4O8,-2.492838585555556
mp-1355028,Rb6Al2(Sb2O7)3,-1.431493876285714
mp-2218790,MgNb2Al2O8,-2.928058427307692
mp-2242052,MgAl2(CuO2)4,-1.717355270333333
mp-755069,LiAl2FeO6,-2.393535263333333