material_id,formula,formation_energy_per_atom
mp-1244953,Al,0.09572362819999901
mp-1245067,Al,0.11430868649999901
mp-1245129,Al,0.094750410799999
mp-1245152,Al,0.102081550799999
mp-1245307,Al,0.10754954109999901
mp-1239196,Al,0.302125532499999
mp-1183144,Al,0.0104807275
mp-2647008,Al,0.032078225
mp-134,Al,0.0
mp-998860,Al,0.10340029
mp-1244960,AlF3,-3.682677069399999
mp-1245145,AlF3,-3.6931852623999992
mp-1245158,AlF3,-3.670061017199999
mp-635425,AlF3,-3.59402027375
mp-1251148,AlF3,-3.82961855875
mp-1399,AlAu,-0.42298121250000104
mp-570987,Ce3Al,-0.224513107499998
mp-1228806,AlSb,-0.014394015000000001
mp-1228854,AlNi,-0.438242119999999
mp-1228956,AlAu4,-0.152588825999998
mp-2500,AlCu,-0.24248409
mp-25469,AlCl3,-1.692806269374999
mp-1039141,MgAl,0.0143388125
mp-1228868,AlNi,-0.6581211049999991
mp-1953,TiAl,-0.44695741333333305
mp-20130,Pu3Al,0.19264780328123202
mp-771,MnAl,-0.272285743965517
mp-988939,AlAs,-0.0017720312500000002
mp-1079182,AlPt3,-0.739600528749988
mp-1182870,AlPt3,-0.5689207268749921
mp-555026,AlF3,-3.850576290499999
mp-607111,AlPt3,-0.7531256231249941
mp-997569,AlP,-0.068993173988094
mp-1228815,AlRe,-0.382194888749999
mp-1323,AlF3,-3.851997168593749
mp-1193531,Ta2Al,-0.29570217388888903
mp-18427,Nb2Al,-0.345805192333333
mp-639874,Ta2Al,-0.12393910155555302
mp-1018166,AlTc2,-0.467612646666665
mp-1018179,AlAu2,-0.317411696666667
mp-10909,AlRe2,-0.32302287499999705
mp-1094961,Mg3Al,0.03952205625
mp-1183203,AlGe3,0.250985838749999
mp-1183208,AlGa3,0.124630765
mp-1183215,AlCd3,0.11532127250000102
mp-1183278,AlPb3,0.156096374999997
mp-1184882,K3Al,0.30760282525000004
mp-1699,AlCr2,0.035209829999999005
mp-862848,Pa3Al,-0.13792461249999302
mp-975056,Rb3Al,0.35960448437499903
mp-975868,Li3Al,-0.07757908000000001
mp-1182886,AlO3,-1.4760469203125
mp-1182915,AlO3,-1.2797466865625
mp-23288,AlBr3,-1.518050286874999
mp-30930,AlI3,-0.9552141906250001
mp-1080448,AlPt3,-0.750710777499989
mp-12772,Hf2Al,-0.31007932000000404
mp-12773,Zr2Al,-0.36838501500000104
mp-1651,Th2Al,-0.26241455999998603
mp-1228988,AlAg3,-0.072474530250002
mp-669546,AlPd,-0.9276591973076921
mp-1102672,Sr2Al,-0.01727903941358
mp-1183007,AlF3,-3.85647464125
mp-1205393,AlO3,-1.461905772499999
mp-1214861,AlH6,0.9666264226785701
mp-1103295,AlF3,-3.8628652050000003
mp-1182868,AlO3,-1.486638615
mp-1025044,AlNi2,-0.490064431666665
mp-25470,AlCl3,-0.7835284556249991
mp-1038779,MgAl,0.06514492250000001
mp-1219773,Pu3Al,0.22241584578124202
mp-1228933,AlCo4,-0.007462145000000001
mp-1228947,AlAg4,0.015597754066666001
mp-1253219,AlO3,-1.58773486125
mp-23933,AlH3,-0.073632082812499
mp-35200,AlO3,-1.58718572
mp-468,AlF3,-3.86576940625
mp-1018100,AlSb,-0.24409026249999802
mp-661,AlN,-1.6796721718749992
mp-8880,AlP,-0.732814428988096
mp-8881,AlAs,-0.619637686249999
mp-1016271,Mg7Al,0.041225045625000005
mp-1023506,Mg15Al,0.039757760937499005
mp-1039019,MgAl,0.05358336749999901
mp-1185596,Mg149Al,0.002754187233333
mp-1217008,TiAl,-0.29149810333333304
mp-1217072,Ti3Al,-0.143674038749999
mp-1228901,AlAg,-0.029985952500000003
mp-7760,AlSn,0.2070903175
mp-944,AlB2,-0.050413121666666005
mp-985578,AlFe,0.46102108
mp-985579,AlFe2,-0.141337556666666
mp-1079240,LiAl,-0.12185767833333301
mp-1079266,Pr3Al,-0.212668897499998
mp-1080098,Nd3Al,-0.229044203124999
mp-1080667,AlCo3,-0.178359348749998
mp-1084828,La3Al,-0.257904241249999
mp-1094664,MgAl,0.6173446
mp-1094970,Mg3Al,0.029916161250000003
mp-11209,AlAs,-0.378745271249999
mp-11220,Sc2Al,-0.366392015
mp-1183188,AlTc3,-0.152410869999997
mp-1183216,AlCu3,-0.1994387025
mp-1183223,AlAu3,-0.199118088749997
mp-1183232,AlNi3,-0.40519879874999903
mp-1183279,AlPb3,0.196926847499995
mp-1183306,AlRh3,-0.50482574375
mp-1184122,Dy3Al,-0.23901492874999802
mp-1184670,Hf3Al,-0.24114130625000002
mp-1186496,Pm3Al,-0.23866159562500003
mp-1187635,Tm3Al,-0.23584128125000303
mp-1188018,Zr3Al,-0.30851325624999804
mp-13178,AlN,-1.564381941874998
mp-1823,Ti3Al,-0.29721952624999803
mp-21393,Ce3Al,-0.21394430624999902
mp-2557,Zr2Al,-0.397530758333334
mp-862259,Sc3Al,-0.288817323749999
mp-973266,Lu3Al,-0.233513876249993
mp-979266,Sm3Al,-0.23774359
mp-10904,AlPt,-1.13101585
mp-1182885,AlCu4,-0.12646613250000002
mp-1490,AlAu4,-0.22434480649999902
mp-27233,SrAl,-0.19140256437500003
mp-7189,AlPd,-0.9356018049999991
mp-1182877,AlO3,-1.26301225125
mp-1182887,AlO3,-1.461529855
mp-1182902,AlF3,-3.8242203412499993
mp-15621,AlSb,-0.13597348687499802
mp-988945,AlAs,-0.47724543374999906
mp-1008753,Ti2Al,0.5471105313888901
mp-1018132,AlBi,0.090943279999997
mp-1038818,MgAl,0.9031218025000001
mp-1550,AlP,-0.737248783988095
mp-1700,AlN,-1.658923009375
mp-2172,AlAs,-0.627042776249999
mp-2624,AlSb,-0.252975485
mp-1008555,AlCu3,-0.19345201249999902
mp-1009839,TbAl,-0.44423834499999804
mp-1018101,AlCo3,-0.15542592999999802
mp-1021666,AlSi,0.303207859999999
mp-1022721,AlCu,-0.168422851999999
mp-1038934,MgAl,0.0800179725
mp-1061123,TiAl,-0.306061108333333
mp-1065540,AlC3,2.645108317656251
mp-10871,AlAu,-0.2707863125
mp-10879,CeAl,-0.29124639899999805
mp-10889,La3Al,-0.21735795124999702
mp-10902,PrAl,-0.36412722083333104
mp-10903,AlPt,-1.020283371249998
mp-10908,AlRe,-0.076832796249998
mp-11221,SmAl,-0.41386044000000005
mp-11222,Sm3Al,-0.20828748593750002
mp-11226,Tb3Al,-0.22897127000000203
mp-11229,YAl,-0.43783409500000103
mp-1183143,AlPd3,-0.601624332499998
mp-1183162,AlFe3,-0.198893174999999
mp-1183170,AlBi3,0.231929007499999
mp-1184060,Dy3Al,-0.224800076249998
mp-11843,DyAl,-0.444183152499999
mp-1184417,Gd3Al,-0.219808119999989
mp-1184840,K3Al,0.32343797775000005
mp-1185427,Lu3Al,-0.222120394999993
mp-1186381,Pa3Al,-0.12666282499998902
mp-1186489,Pm3Al,-0.20646039812500303
mp-12067,MnAl,-0.224589803965517
mp-1214819,AlC6,1.9432648325892852
mp-12753,GdAl,-0.371217619999999
mp-12793,NdAl,-0.388869833749996
mp-1471,Zr3Al,-0.318824856249999
mp-1487,AlNi,-0.6849011500000001
mp-188,AlPt3,-0.739235739999998
mp-1885,AlIr,-1.070602759999999
mp-2093,Pr3Al,-0.18774121874999802
mp-2413,Ce3Al,-0.23543659249999702
mp-2593,AlNi3,-0.42641977749999904
mp-2658,AlFe,-0.326887014999999
mp-284,AlCo,-0.556456129999999
mp-30338,Y3Al,-0.18167205500000302
mp-31434,Np3Al,0.23067552406251202
mp-331,ScAl,-0.46617776250000104
mp-364,AlRh,-1.17748661
mp-542569,AlRu,-0.728409132500001
mp-8039,AlF3,-3.85641041
mp-829,AlPd,-0.8978085199999991
mp-875,AlOs,-0.49013171
mp-975530,RbAl,0.658536436249999
mp-976358,Nd3Al,-0.20575865312499803
mp-978271,Mg3Al,0.021869511249999002
mp-978498,Sc3Al,-0.23661352124999901
mp-1387,AlV3,-0.169027858749999
mp-259,AlMo3,-0.258336353750003
mp-796,Nb3Al,-0.218436486249999
mp-1039010,MgAl,0.46102990250000003
mp-1094666,Mg3Al,0.07094717125000001
mp-1187947,Yb3Al,-0.094227358750003
mp-12777,AlCu3,-0.180917327499999
mp-1330,AlN,-1.507669534374999
mp-2018,AlFe3,-0.163539367499999
mp-672232,AlNi3,-0.35436974749999905
mp-8023,AlO,-1.5521156375
mp-973149,Mn3Al,-0.06714692844827601
mp-974270,Na3Al,0.180173110086206
mp-975052,Rb3Al,0.353391119374999
mp-988940,AlAs,-0.350628891249999
mp-999027,Ti3Al,-0.17853670874999802
mp-39008,AlBr4,-1.179652310999999
mp-1063660,CsAl,0.5085645310344821
mp-1067,LiAl,-0.20847878833333303
mp-1106356,AlH3,-0.063617624062499
mp-1207597,Yb4Al,0.530362027000001
mp-1207806,Y4Al,0.44887811533333405
mp-1208015,Tm4Al,0.49775804766666704
mp-1208233,U4Al,1.102748767500009
mp-1208289,Th4Al,0.7243711380000031
mp-1208467,Tb4Al,0.46758995750000104
mp-1208483,Sr4Al,0.320051477185182
mp-1208890,Sm4Al,0.45428691724999903
mp-1209129,Sc4Al,0.504860202
mp-1209724,Pr4Al,0.43061767366667103
mp-1209964,Nd4Al,0.434977592000001
mp-1210553,Lu4Al,0.508283378250007
mp-1210792,Li2Al,0.147406203888888
mp-1211397,La4Al,0.3681215425
mp-1212293,Ho4Al,0.481352507500008
mp-1212899,Dy4Al,0.474851671499999
mp-1212928,Er4Al,0.48857819516667206
mp-1213330,Eu4Al,0.307241868600004
mp-1214044,Ca4Al,0.324381848000001
mp-1214528,Ba4Al,0.303417706
mp-1214891,AlH12,0.10071363259615301
mp-31184,AlFe2,-0.10484484166666601
mp-568171,Nd2Al,0.32447934791666905
mp-1016233,Mg3Al,0.050327623749999
mp-1120783,AlC,0.411017916479166
mp-2646975,AlO3,-1.75555447125
mp-1094987,MgAl,0.044477772500000005
mp-16960,AlPt2,-0.923852272499999
mp-1106232,PrAl,-0.43777158833333
mp-11225,TbAl,-0.48557350312499903
mp-1188420,HoAl,-0.477974344374999
mp-1188739,ErAl,-0.46893102166666606
mp-16507,LuAl,-0.457800537083333
mp-16721,TmAl,-0.47079037250000105
mp-433,DyAl,-0.48227621624999906
mp-864637,NdAl,-0.45537945249999706
mp-978951,SmAl,-0.46962974687500003
mp-1182858,AlO2,-2.6712326983333323
mp-30550,AlAu2,-0.32969789800000204
mp-570130,AlH3,-0.05904793739583201
mp-1189619,EuAl,-0.354774603499998
mp-12802,AlCu3,-0.20196853
mp-1182911,AlO3,-1.23100709125
mp-1078399,CsAl,0.27059237728448104
mp-1079984,BaAl,-0.12189161000000001
mp-1101848,Nd2Al,-0.295328785833329
mp-1102344,Sm2Al,-0.314055085833331
mp-1102728,Dy2Al,-0.344273992500002
mp-1102875,Er2Al,-0.33815931722222103
mp-1103225,Pr2Al,-0.274225072777772
mp-1103391,Tb2Al,-0.343376898333332
mp-11230,Y2Al,-0.336266310833335
mp-1182869,AlO2,-2.626357823333332
mp-16502,Ho2Al,-0.344653696666663
mp-16526,AlPt2,-0.9216475133333311
mp-2824,AlPd2,-0.8292466416666661
mp-569558,AlAu2,-0.333313270833334
mp-605663,AlPd5,-0.46204495833333203
mp-734251,AlO2,-2.420181035
mp-1023918,AlSb,-0.06518077750000001
mp-1078585,GdAl,-0.42916306624999806
mp-1079783,EuAl,-0.280406542499999
mp-1096799,AlO2,-2.56020288
mp-11228,YAl,-0.468428602500001
mp-11233,ZrAl,-0.529345285000001
mp-1182900,AlO2,-2.4995466675
mp-1183246,AlH3,-0.069383183229166
mp-1210753,Li2Al,-0.181432611111111
mp-12684,LaAl,-0.470004778749999
mp-178,ThAl,-0.37070256499999404
mp-20439,CeAl,-0.3912047725
mp-249,HfAl,-0.45052716500000006
mp-559871,AlF3,-3.855135869166666
mp-568417,PrAl,-0.44112123333333003
mp-985805,AlAg2,-0.056765646666666
mp-999206,ScAl,-0.35555041750000105
mp-1191737,LiAl,-0.061583990833333005
mp-1228001,AlV,-0.28638329500000004
mp-1228813,AlV3,-0.12651598624999602
mp-1228919,AlFe3,-0.08600655999999901
mp-1228927,AlAg3,0.018319204250001
mp-1252764,AlF3,-3.81159451625
mp-1220481,Nb4Al,-0.10302877020000001
mp-1228006,AlV2,-0.18311095666666602
mp-1228923,AlCr2,0.07268553333333701
mp-1228952,AlFe4,-0.062807495999999
mp-1182873,AlP2,-0.054007961269841004
mp-1182888,AlAs2,-0.058441664583331006
mp-1191099,AlAs2,0.072199039583333
mp-1041957,AlW3O8,-2.181867512499999
mp-1173357,SmAlF5,-3.820391957261902
mp-1182949,Al(HO)3,-2.019009386964286
mp-1204888,AlPO6,-1.783103684330357
mp-1205403,AlSeCl7,-0.9633391423958331
mp-1228099,BaAlF5,-4.034682143809523
mp-1228992,AlGe3Mo2,-0.196177092222225
mp-1229207,Al(SiO3)2,-3.012877624166667
mp-1247813,AlAg7Se5,2.352093770072114
mp-1248478,AlCoO3,-2.090569429333334
mp-2767452,AlV2O4,-2.835161980714285
mp-554002,Al(HO)3,-2.037430720535714
mp-625075,AlHO2,-2.4778609478125
mp-625318,Al(HO)3,-2.025857349107142
mp-625762,Al(HO)3,-2.013686492857143
mp-625774,Al(HO)3,-2.022026624107143
mp-625807,Al(HO)3,-2.003276375892857
mp-626094,Al(HO)3,-2.017718666964286
mp-626103,Al(HO)3,-2.029360990892857
mp-626431,Al(HO)3,-2.029840824107143
mp-626435,Al(HO)3,-2.039267438035715
mp-626481,Al(HO)3,-1.991273873928572
mp-626496,Al(HO)3,-2.036477308928571
mp-626500,Al(HO)3,-2.00647230625
mp-626502,Al(HO)3,-2.035283762142857
mp-626504,Al(HO)3,-2.01962371625
mp-626568,Al(HO)3,-1.999795497678571
mp-626654,Al(HO)3,-1.9917637298214281
mp-649130,AlSeCl7,-0.8217919829513861
mp-673570,Al(HO)3,0.510377649285714
mp-673602,Al(HO)3,0.454993848214285
mp-674357,SmAlF5,-3.789816636011902
mp-675325,Al(Ag3S2)3,-0.260239715742185
mp-685291,AlPO4,-2.840946517301586
mp-686615,AlPO4,-2.676820228273809
mp-696871,LaAlO3,-3.4941317840000012
mp-754022,AlCoO3,-2.225202081999999
mp-802021,AlVO3,-0.8971767810000001
mp-1205474,AlPO4,-2.106960125496031
mp-1228809,AlReSi,-0.45734168416666604
mp-1228817,AlReGe,-0.28877370083333104
mp-1025108,GdAlGe,-0.624652531666666
mp-10450,PrAlGe,-0.7762397055555531
mp-11511,LaAlGe,-0.808275546666666
mp-1206175,EuAlGe,-0.6183398200000001
mp-1206597,CeAlSi,-0.701184648333331
mp-1206852,NdAlGe,-0.7781586491666651
mp-1206928,CeAlGe,-0.594403591666666
mp-1220161,NdAlSi,-0.737469985833333
mp-1222884,LaAlSi,-0.7525105499999991
mp-1224619,GdAlSi,-0.598650303333332
mp-1225273,DyAlSi,-0.6505734483333351
mp-1225503,ErAlSi,-0.609758799444447
mp-12804,SmAlSi,-0.726917778333335
mp-3077,SmAlGe,-0.6646172733333341
mp-760396,TaAlO4,-3.345023961222222
mp-1041498,AlMo3F15,-2.708865086249997
mp-1041829,AlCo3F15,-1.948254995
mp-1041859,AlFe3F15,-2.314354470526315
mp-1047451,Ti3AlF15,-3.5545270407894742
mp-1047454,AlSn3F15,-2.703198596578947
mp-1047485,AlSb3F15,-2.7434882073684213
mp-1047502,AlBi3F15,-2.418079153421048
mp-1047756,Al(WF5)3,-2.799762154210525
mp-1246896,Mn3AlN3,-0.408756788399015
mp-1254498,AlNi3F15,-1.919289974342104
mp-1357103,AlNi3F15,-1.8780097890789462
mp-1358927,Mn3AlF15,-2.4940254017785852
mp-561424,KAlF4,-3.648254212874994
mp-571260,AlInI4,-0.8898664715277751
mp-625055,AlHO2,-2.597094162812499
mp-9698,Rb6AlSb3,-0.447885379500003
mp-1102285,AlPS4,-0.6941880198710311
mp-1102536,AlCuBr4,-1.213548159999999
mp-1268005,AlBiSe4,-0.406646809726571
mp-28020,AlCuCl4,-1.319186356666666
mp-35327,Al(CN)3,-0.13521286428571402
mp-1008556,AlGaN2,-1.160212889375
mp-1008557,AlBN2,-1.161681334999999
mp-1228888,AlGaP2,-0.619710738988095
mp-1228890,AlInSb2,-0.23747915500000202
mp-34993,LiAlO2,-2.9941417804166672
mp-1215365,Zr5AlNi4,-0.422327366499999
mp-1215553,YbAlCu5,-0.30277880357143
mp-1217144,Ti4AlGe7,-0.44684737819444403
mp-551798,AlPO4,-0.30263244910714204
mp-1005753,Sm2AlGe6,-0.43846334944444404
mp-1045021,Mn3AlO6,-2.280084986129311
mp-1045074,Al(CoO2)3,-1.72016798275
mp-1053454,Li2CeAl,0.079226873833334
mp-1096316,La2AlIn,1.930495143750004
mp-1105912,Ce2AlGe6,-0.436916808333332
mp-1173619,NbAlO4,-3.21169860986111
mp-1182975,Al(NCl)4,1.059997447500001
mp-1188429,Nd2AlGe6,-0.5044500954166691
mp-1190006,Pr2AlGe6,-0.48779632537036804
mp-1190055,Gd2AlGe6,-0.424096883333333
mp-1208536,Tb2AlGe6,-0.46358073611111106
mp-1216557,TmAlGa,-0.619869378333334
mp-1218590,SrAlIn,-0.336328537222221
mp-1219110,SmAlZn,-0.448415816666668
mp-1219678,PrAlZn,-0.42421363222221903
mp-1220449,NbAlO4,-3.17855328
mp-1222857,LaMg11Al,-0.039475953846153
mp-1222935,LaAlZn,-0.481932336666664
mp-1225194,EuAlGa,-0.5302447733333311
mp-1226821,CaAlGa,-0.46693808833333206
mp-1262698,AlFe3F15,-2.289985379736842
mp-1272257,AlV2O4,-2.734661053928571
mp-1276673,AlV2O4,-2.730544797857143
mp-1394351,Al(CuO2)3,-0.843183305
mp-14333,TaAlO4,-3.400570372055554
mp-14951,Rb3AlO3,-2.192958231785712
mp-19413,AlWO4,-2.63203482
mp-27927,NbAlO4,-3.226094881666666
mp-28118,AlSbI6,-0.7967515743749981
mp-31405,Mg4AlSi6,0.171314653636363
mp-557757,AlPO4,-3.104928618551586
mp-571542,CeAlCo,-0.512263699999999
mp-753472,NbAlO4,-3.188611330833333
mp-9157,K3AlO3,-2.257201830250001
mp-1245486,AlCoN2,-0.550804280937498
mp-1245566,MnAlN2,-0.804956318232759
mp-1245628,YAlN2,-1.593791819374999
mp-1245631,AlFeN2,-0.618678065000001
mp-1245856,AlInN2,-0.862999876875001
mp-1245895,AlCrN2,-0.9818514943749981
mp-1345658,Al(CuS2)3,-0.19861206279166702
mp-1346055,Al(CuSe2)3,-0.181151561937497
mp-14091,AlAgSe2,-0.7432121020312501
mp-14092,AlAgTe2,-0.43926148875000204
mp-4586,LiAlTe2,-0.925174646666666
mp-4979,AlCuS2,-0.963132853906248
mp-5782,AlAgS2,-0.904003048906249
mp-8016,AlCuSe2,-0.7563341932812491
mp-8017,AlCuTe2,-0.42519420625000104
mp-1025271,AlPPt5,-0.6679614925680291
mp-1025306,AlAsPt5,-0.568372223214282
mp-1077280,AlNF4,-1.6895768758333332
mp-1173125,TaAlO4,-2.383048731222222
mp-1210387,Na2AlGe2,0.230769675624999
mp-1215288,ZrAlN2,-1.352837980624999
mp-1215308,ZrAlNi2,-0.490161602499999
mp-1215314,ZrAlCu2,-0.20778736749999902
mp-1215335,ZrAlAu2,-0.5723820593055461
mp-1215589,Zr3AlN4,-1.711204306250001
mp-1217016,TiAlCo2,-0.517592894166664
mp-1217020,TiAlFe2,-0.39727998333333203
mp-1217021,TiAlNi2,-0.504478898333331
mp-1217022,TiAlAu2,-0.46214395770833505
mp-1217040,TiAlPd2,-0.744713764166672
mp-1217044,TiAlNi6,-0.473768206666666
mp-1217047,TiAlCu2,-0.22710811416666402
mp-1217087,Ti2AlCr,-0.20894951833333203
mp-1217689,Tb2AlCu,-0.347382061041667
mp-1219346,ScAlCu2,-0.26000334375
mp-1219931,Pr2AlZn,-0.320696435833332
mp-1221702,MnAlRh2,-0.653301976982758
mp-1221718,MnAlPd2,-0.565037866982757
mp-1221720,MnAlIr2,-0.546775179482759
mp-1221740,MnAlNi6,-0.25653153974137805
mp-1223211,La2MgAl,-0.23241554125000002
mp-1223230,La2AlZn,-0.37397998750000006
mp-1225076,Er2AlCu,-0.325927632499998
mp-1225555,Er4AlSi3,-0.487371012916664
mp-1226604,CeAlO2,-2.877587447499999
mp-1228041,AlSiNi6,-0.430051100625
mp-1228805,AlOF3,-2.132349994
mp-1228816,AlVFe2,-0.38128014999999904
mp-1228832,AlNi6Ge,-0.336871960000001
mp-1228840,AlVNi2,-0.385740333958334
mp-1228861,AlNi6Pd,-0.18249495750000103
mp-1228893,AlGaCo2,-0.37752743999999905
mp-1228906,AlCrFe2,-0.15702917999999902
mp-1228912,AlCuPd2,-0.6095764662500011
mp-1228918,AlGaNi6,-0.35302968250000005
mp-1228938,AlCuNi6,-0.18506885250000002
mp-1228972,AlCoNi6,-0.197792825000002
mp-1229119,Al(Ni4Pt)3,-0.15075195937499802
mp-12550,AlCuPt2,-0.7594491199999991
mp-1383064,AlCrO3,-1.5538115110000001
mp-1386275,Al(BiO3)3,-1.206278120384616
mp-1539038,AlTl2F5,-2.910299935624998
mp-5347,KAlF4,-3.634830124124994
mp-5479,RbAlF4,-3.6362549645833333
mp-5606,AlTlF4,-3.247533628333334
mp-7723,NaAlF4,-3.5062188820000113
mp-9486,K2AlF5,-3.50936397743751
mp-10532,Yb2AlSi2,-0.7567335389999981
mp-10676,Sc2AlSi2,-0.730919807
mp-16496,Al(CuRe)2,0.34465301400001
mp-21269,U2AlCo2,-0.18647605649999202
mp-21382,Dy2AlGe2,-0.811393761999971
mp-2910,KAlF4,-3.644089839958327
mp-5259,RbAlF4,-3.636942878749999
mp-20757,MnAlGe,-0.20761954431034402
mp-27335,NaAlSi,-0.152273453333332
mp-7400,NaAlGe,-0.26544648666666604
mp-1019513,AlPO4,-3.124925000218252
mp-1211750,KAlBr4,-1.764494914958331
mp-1214853,AlInBr4,-1.380429771527776
mp-567878,AlTlBr4,-1.464957673888887
mp-1096811,Al(BiO2)2,-1.8540241467857141
mp-1198317,Mg4AlSi3,0.005714555937500001
mp-555538,AlPS4,-0.144608767371031
mp-1214822,AlCo2Ni,-0.24212216449999902
mp-1258362,AlVRe2,3.88583563625
mp-23697,K3AlH6,-0.252694618374999
mp-27393,AlPd5I2,-0.524211835
mp-1019377,Al(PO3)3,-2.841152989725275
mp-1019512,AlPO4,-3.035414427857143
mp-1182023,CaAlH5,-0.258002306428571
mp-1182916,AlSeO10,-0.38356443623697906
mp-1182973,AlSO10,-0.9088203112499991
mp-1183023,AlSO10,-1.001096870208333
mp-1183036,Al(NO6)3,-0.257398898068181
mp-1189272,CsAlTe3,-0.8045202115000021
mp-1193748,Cs3AlTe3,-1.168032883214282
mp-1202156,AlPO6,-1.8578585858928571
mp-1203148,AlP3O10,-2.5021480618877563
mp-1204227,Al(NO6)3,0.015425901249999001
mp-1215122,Al(NO6)3,0.335080762045454
mp-1238905,AlSeO10,-0.5454918014453121
mp-1245626,YAlN2,-1.6440572468749992
mp-1247480,Na3AlN2,-0.24121220385057401
mp-1259818,AlFeO3,-2.356194891999999
mp-1340379,AlSnO3,-2.436627378
mp-16557,SrAlF5,-4.042098668035715
mp-16795,CaAlF5,-4.007732106428571
mp-18217,K3AlSe3,-1.3819342316116061
mp-18378,K3AlTe3,-1.127586541607144
mp-2212965,KAlCl4,-1.955060099791667
mp-22983,LiAlCl4,-1.8320611681944432
mp-23705,Na3AlH6,-0.271020285249999
mp-24034,K3AlH6,-0.302516447875
mp-27540,Al(HO)3,-2.043254557678572
mp-27653,LiAlH4,-0.21714912652777701
mp-29596,Ca3AlN3,-1.229088554821428
mp-3416,Na3AlF6,-3.4024626925
mp-541111,AlGaCl4,-1.398451875416666
mp-555144,BaAlF5,-4.039143896785715
mp-560196,Al(HO)3,-2.030383955178571
mp-560538,Na3AlS3,-1.397249384062499
mp-560572,Al(HO)3,-2.033873339285714
mp-562441,Cs3AlO3,-2.156945058423644
mp-573751,AlTeCl7,-1.124001829722222
mp-582723,Cs3AlAs2,-0.47687160211925306
mp-601881,CaAlH5,-0.242148208749999
mp-607829,AlTlI4,-0.9711981497222221
mp-619651,Cs3AlP2,-0.6025924699503941
mp-625739,Al(HO)3,-2.019841843214286
mp-626470,Al(HO)3,-2.036871650892858
mp-672273,AlBiCl6,-1.714143323750001
mp-771698,LaAlO3,-3.6653477362499993
mp-775763,AlBiO3,-2.475551670500001
mp-776172,AlCuO3,-2.055902871
mp-777738,Al(HO)3,-2.02224892625
mp-780411,LaAlO3,-3.629298000333334
mp-780422,LaAlO3,-3.6866563066666673
mp-966582,CaAlH5,-0.37470763410714203
mp-9680,Na3AlTe3,-0.9806020482142861
mp-9682,Na3AlSe3,-1.288684136026784
mp-10163,NaAlTe2,-0.823727190000003