material_id,formula,formation_energy_per_atom
mp-1046756,Sr2TiAlCu2O7,-2.577304655641025
mp-1048042,Sr2AlGaCu2O7,-2.335305610961537
mp-1048505,Sr2AlGaFe2O7,-2.4789067625
mp-1201174,CsAlAs3H5O12,-1.8048901917456899
mp-1227540,Ca2AlH10ClO8,-1.9325252510227262
mp-1342473,Sr2AlGaNi2O7,-2.347449331730769
mp-2712829,TiAlP(SO6)2,-2.558465458606443
mp-2712854,AlGeP(SO6)2,-2.243263307135854
mp-2712928,AlSnP(SO6)2,-2.267850087429973
mp-2712960,ZrAlP(SO6)2,-2.628576453018208
mp-2713094,HfAlP(SO6)2,-2.669668372429972
mp-2713135,TaAlSi(SO6)2,-2.581003765627451
mp-2713315,Na2HfAl(PO4)3,-3.032242008860729
mp-2713365,NbAlP2SO12,-2.702849491869748
mp-2713423,TaAlP2SO12,-2.773249399359945
mp-2713477,NbAlSi(SO6)2,-2.517594647156863
mp-2713563,Na2TiAl(PO4)3,-2.9402230519309063
mp-2713598,Na2ZrAl(PO4)3,-2.9855671409659923
mp-2713680,Na2AlGe(PO4)3,-2.682005078158975
mp-2713717,Na2AlSn(PO4)3,-2.698147002281782
mp-532810,KAlCo(PO4)2,-2.713060226464285
mp-559777,Na5Ca2Al(PO4)4,-2.923462080373856
mp-1042180,BaAlCuBiO5,-1.8950342894444452
mp-1042181,BaAlCuAgO5,-1.583097979629629
mp-1042194,BaAlCuSbO5,-1.8866955572222222
mp-1042199,BaAlCuSnO5,-1.9740524677777782
mp-1042464,BaAlFeCuO5,-2.006972187222222
mp-1042474,BaMnAlCuO5,-2.081436422547893
mp-1042478,BaAlCuNiO5,-1.818531000555555
mp-1042494,BaAlCoCuO5,-1.898859220555555
mp-1042497,BaAlCrCuO5,-2.135838199444444
mp-1042504,BaAlCuMoO5,-1.9084245883333342
mp-1042519,BaAlCuWO5,-1.9026444316666682
mp-1446611,BaTiAlCuO5,-2.477046089814815
mp-2647039,KLaTaAlO6,-3.349407165958332
mp-1173817,NaAlH22C10(NO6)2,-0.8485741289349871
mp-1221236,Na4Mg11AlSi12(HO10)4,-2.9424121277155173
mp-1223512,KMg3AlSi3(O5F)2,-3.323647632612499
mp-1223527,KMg3AlGe3(O5F)2,-2.8050888828625
mp-1223563,KMg3AlSi3O11F,-3.1353499296125
mp-1223564,KMg3AlSi3(HO6)2,-2.956504424761362
mp-1223578,KMg2AlFe(SiO4)3,-2.9207112826125
mp-1223621,KAlSi3Ni3(HO6)2,-2.436392992261362
mp-1223622,KAlCo3Si3(HO6)2,-2.432456038170453
mp-1227381,Ca2TiAlSi2O9F,-3.515364937708334
mp-2712842,Na3Ta3AlSi3(PO8)3,-3.061622084866662
mp-2712971,Na3Nb3AlSi3(PO8)3,-2.9575570304882843
mp-2713263,Na2LaAlP2SO12,-2.800192462783035
mp-2713283,Na2ScAlSi(SO6)2,-2.637707441022384
mp-2713296,Na2ScAlP2SO12,-2.8100578232216322
mp-2713329,Na2AlGaP2SO12,-2.548254320633912
mp-2713544,Na2AlGaSi(SO6)2,-2.3790669940487
mp-2713546,Na2YAlSi(SO6)2,-2.636789907425893
mp-2713569,Na2AlInSi(SO6)2,-2.349964715408349
mp-2713612,Na2AlInP2SO12,-2.52247039094093
mp-2713630,Na2YAlP2SO12,-2.810600428309352
mp-2713643,Na2LaAlSi(SO6)2,-2.6284494856715073
mp-2714322,Na4LaAlSi2SO12,-2.756318046334155
mp-2714328,Na4ScAlSi2SO12,-2.786575157127806
mp-2714344,NaYAlP(SO6)2,-2.65002312977901
mp-2714351,Na4LaAlSi(PO6)2,-2.912567448403315
mp-2714370,NaAlInP(SO6)2,-2.342969394223454
mp-2714424,Na4AlGaSi2SO12,-2.565768052881774
mp-2714457,Na4YAlSi2SO12,-2.777758605223044
mp-2714470,Na4AlInSi(PO6)2,-2.690381336974745
mp-2714474,NaLaAlP(SO6)2,-2.6429503495012323
mp-2714511,Na4AlInSi2SO12,-2.535530260937329
mp-2714545,Na4YAlSi(PO6)2,-2.936742171816014
mp-2714550,Na4AlGaSi(PO6)2,-2.722450041220775
mp-2714595,NaScAlP(SO6)2,-2.649067676538269
mp-2714619,Na4ScAlSi(PO6)2,-2.9458503438001413
mp-2714644,Na3Hf3AlSi3(SO8)3,-2.874073744864088
mp-2714673,Na3Ti3AlSi3(SO8)3,-2.73808780702625
mp-2714766,Na3Zr3AlSi3(SO8)3,-2.818939195674899
mp-2714779,Na3AlSi3Sn3(SO8)3,-2.355783603647872
mp-2714904,Na3AlSi3Ge3(SO8)3,-2.328295514638863
mp-2715057,Na4Ta3AlSi5SO24,-2.9819852251320342
mp-2715097,Na4Nb3AlSi4(PO12)2,-2.954466065564991
mp-2715122,Na4Nb3AlSi5SO24,-2.880521461658349
mp-2715140,Na4Ta3AlSi4(PO12)2,-3.055106833775516
mp-2715538,Na2Nb3AlSi4(SO12)2,-2.790322005215518
mp-2715584,Na2Ta3AlSi2(PO6)4,-3.061894185185094
mp-2715599,NaTa3AlSiP5O24,-3.049342034759817
mp-2715624,NaNb3AlSiP5O24,-2.9402730987979133
mp-2715696,Na2Ta3AlSi4(SO12)2,-2.89123917017848
mp-2715720,Na2Nb3AlSi2(PO6)4,-2.953776937907317
mp-2715765,NaAlGaP(SO6)2,-2.371541880010491
mp-2716390,Na5Ta3AlSi5PO24,-3.05647696607366
mp-2716481,Na5Nb3AlSi5PO24,-2.959320842689045
mp-693358,Ca6Ti5AlSi6O29F,-3.485607767951389
mp-696633,Ca10TaTi8Al(SiO5)10,-3.189740622674999
mp-769069,Na2Li4Ti3Al(PO4)6,-2.840335312848728
mp-769073,Na2LiTi3Al(PO4)6,-2.9860913179445703
mp-769074,Na2LiTi3Al(PO4)6,-2.988804707133759
mp-1214122,CaCeAlFe2Si3O13,-3.032245942619048
mp-1227925,Ca3Zr2AlFeSiO12,-3.356612029125
mp-1227961,Ca3Hf2AlFeSiO12,-3.43293973275
mp-725593,NaCa3AlFe3(SiO3)8,-3.042579305284484
mp-1195968,CsAlVP2(HO5)2,-2.5604348889082873
mp-1196580,AlCoP2C2(NO4)2,-1.751557575580356
mp-1215048,AlH10C3N6OF5,-1.263290004807693
mp-24308,AlSiH9C3Cl2O,-0.808122768308824
mp-24757,AlBP2H5NO9,-2.187111668931705
mp-542129,CsAlBP2HO9,-2.763287353290504
mp-542130,RbAlBP2HO9,-2.764767015646826
mp-697278,NaCaAlH2OF6,-3.171325685531609
mp-735184,AlVP2C2N2O9,-1.95611847039916
mp-773079,AlZnH16N(OF)6,-1.7008288067741941
mp-773092,AlNiH16N(OF)6,-1.6749279570967741
mp-769078,Na2Li3Ti3Al(PO4)6,-2.88720463155425
mp-24279,AlH36C12S6(IO2)3,-0.44141883664062503
mp-24764,AlH36C12S6(ClO2)3,-0.48078606109375005
mp-1199471,BaNaAlMo6(H13O17)2,-1.685022257085207
mp-24646,NaAlBP2H3O10,-2.495116093532316
mp-722997,NaCaAlH2OF6,-3.170665265323276
mp-721813,AlH18CS2N3O14,-1.361978177799144
mp-1198421,NaMgAlH18(C2O7)3,-1.594209957094707
mp-1201631,AlCu6H18SClO19,-1.311933914673912
mp-1229293,AlCu6H12SClO19,-1.1986462129375
mp-1197634,AlP2H16C2N3O8,-1.283784618102679
mp-1173088,Ca10TaTi8Al(SiO5)10,-3.468271934925
mp-1182914,AlH14C4NOF4,-0.797935332499999
mp-43094,Ca3Ti2AlSi3O14F,-3.497703789027777
mp-534953,Ca4Ti3AlSi4O19F,-3.492195948906249
mp-572874,AlH14C4NOF4,-0.9528519508999991
mp-693409,Ca10Ti8NbAl(SiO5)10,-3.452857383333334
mp-695698,Ca2TiAlSi2O9F,-3.509077866145833
mp-706670,AlCuH28S2ClO22,-1.447609973636364
mp-707443,Na7AlH2C4(O3F)4,-2.3155021367385062
mp-720340,Ca5Ti3NbAl(SiO5)5,-3.430454232625
mp-720394,Ca5TaTi3Al(SiO5)5,-3.465145833308333
mp-735041,AlVP2CNO9,-2.123833889285714
mp-735824,KLi2AlSi4(O5F)2,-2.310591513895833
mp-1173823,NaCaAlFe(SiO3)4,-3.078405545568965
mp-1221133,NaCa3AlFe3(SiO3)8,-3.043609692284484
mp-1223597,KCa3Mg3Al(SiO3)8,-3.28011020630625
mp-693620,KCa2Be2Al(Si2O5)6,-3.290099668171875
mp-1195533,LiAlC16Cl12(OF6)4,-1.333484467902299
mp-1222936,Li2AlGaSi2(H2O5)2,-2.468709302708332
mp-684841,KMg3AlSi3(O5F)2,-3.108441420612501
mp-1173750,NaCaAlFe(SiO3)4,-3.071712532735632
mp-1221089,NaCaMgAl(SiO3)4,-3.248137427318965
mp-534793,KCa5Mg5Al(SiO3)12,-3.299871274870833
mp-776520,NaLiTiAl(PO4)3,-2.957641276156555
mp-556641,Na2LiAlP2H2O9,-2.5636317382575102
mp-721011,Pr20AlSi19N33Cl2O19,-2.268655562801418
mp-1248231,AlSi2HC6NCl3,0.061593201339285
mp-710380,AlSi2HC6NCl3,0.103467422499999
mp-1199681,AlSnPH18(C3Cl2)2,-0.47988053926267205
mp-1229242,AlH16C2S2NO14,-1.262343880277778
mp-1229335,AlH16C2S2NO14,-1.309377774583333
mp-1256265,NaCaMgAl(SiO3)4,-2.9817276298189643
mp-708992,AlH20C2S2NO14,-1.298310845124999
mp-720244,NaCaMgAl(SiO3)4,-2.954691601568965
mp-1196128,LiAlH8C16(O2F9)4,-1.770079505619048
mp-23151,Na4BeAlSi4ClO12,-3.00330622176162
mp-1223599,KMg3AlSi3O11F,-3.1364184021125
mp-1223631,KMg3AlSi3O11F,-3.1355212626125
mp-2712549,Na3CaAlP2SO12,-2.660502866546182
mp-2712553,Na2TaAlSi2SO12,-2.803558654873261
mp-2712560,Na3MgAlP2SO12,-2.653371066296182
mp-2712583,Na2NbAlSi(PO6)2,-2.908425427300579
mp-2712593,Na3MgAlSi(SO6)2,-2.482220736873564
mp-2712595,NaAlSiGe(SO6)2,-2.319390753595148
mp-2712599,Na2TaAlSi(PO6)2,-2.973408460142685
mp-2712615,NaAlSnP2SO12,-2.518383795546205
mp-2712618,NaAlGeP2SO12,-2.499443249435094
mp-2712660,NaTiAlP2SO12,-2.7789042464721323
mp-2712677,Na3CaAlSi(SO6)2,-2.493458464206897
mp-2712687,NaZrAlSi(SO6)2,-2.654249092854406
mp-2712764,NaTiAlSi(SO6)2,-2.610722885076629
mp-2712765,NaHfAlP2SO12,-2.8769940556387983
mp-2712776,Na2NbAlSi2SO12,-2.742057635978525
mp-2712782,NaAlSiSn(SO6)2,-2.331508542391444
mp-2712804,NaZrAlP2SO12,-2.8313578810091693
mp-2712811,Na3AlZnSi(SO6)2,-2.32330460879023
mp-2712812,Na3AlZnP2SO12,-2.483102158046182
mp-2713155,Na2CaAlP(SO6)2,-2.503491998722885
mp-2713269,Na3TaAlSi2PO12,-2.9729087091390403
mp-2713289,Na3TaAlSi2PO12,-2.9709192762223733
mp-2713389,Na2MgAlP(SO6)2,-2.494262717056219
mp-2713471,Na2AlZnP(SO6)2,-2.315609364512359
mp-2714038,NaHfAlSi(SO6)2,-2.6947164873914433
mp-2714333,Na3AlSi2GeSO12,-2.5396512780818963
mp-2714372,Na3TiAlSi2SO12,-2.786644381331897
mp-2714373,Na3ZrAlSi2SO12,-2.816221173165231
mp-2714534,Na3HfAlSi2SO12,-2.857070811831896
mp-2714562,Na3AlSi2SnSO12,-2.5388752014152303
mp-2715233,Na3AlSiGe(PO6)2,-2.695768474087849
mp-2715255,Na3HfAlSi(PO6)2,-3.016714988921181
mp-2715292,Na3AlSiSn(PO6)2,-2.708222379921181
mp-2715335,Na3NbAlSi2PO12,-2.9080645640223732
mp-2715339,Na3ZrAlSi(PO6)2,-2.975319703171182
mp-2715351,Na3AlSiGe(PO6)2,-2.693201845921182
mp-2715388,Na3AlSiSn(PO6)2,-2.709731162087849
mp-2715405,Na3TiAlSi(PO6)2,-2.936559151504516
mp-2715477,Na3HfAlSi(PO6)2,-3.016962368171183
mp-2715498,Na3ZrAlSi(PO6)2,-2.9774721459211833
mp-2715510,Na3NbAlSi2PO12,-2.910168042522373
mp-2715517,Na3TiAlSi(PO6)2,-2.9345352808378493
mp-2715690,Na4HfAlSi2PO12,-3.006059055960006
mp-2715724,Na4TiAlSi2PO12,-2.933237269213973
mp-2716193,Na4AlSi2SnPO12,-2.720644195960005
mp-2716223,Na4AlSi2GePO12,-2.710617702309211
mp-2716236,Na4ZrAlSi2PO12,-2.965828903023497
mp-42508,Na4BeAlSi4ClO12,-2.9570179269790113
mp-1195233,AlZnB5H20C5(NO2)5,-1.206286373528369
mp-1221134,NaCa2Mg5AlSi7(O11F)2,-3.323497476159482
mp-1223590,KMgMn2AlGe3(O5F)2,-2.575523750655603
mp-1223617,KMg2AlFeSi3(HO6)2,-2.807952449875
mp-1223878,K2AlFeB2P4(HO9)2,-2.607766284796826
mp-1227900,BaLiMg2AlSi3(O5F)2,-3.354285396666667
mp-1210199,NaCaAlPHO5F2,-3.078918621856013
mp-1202327,AlCu4SbPb6S2(Cl2O13)2,-1.252987788522727
mp-1197294,AlSiPH9C3NCl6,-0.7554125835633111
mp-1228916,Ca4AlSiH24SO16F13,-2.202298913875
mp-1195007,AlZnB5H16C4(N2O5)2,-1.343222935691057
mp-1210262,Na4Ca4Be4AlSi7(O6F)4,-3.2420165376149432
mp-643446,Ca2AlH8S2Cl(O6F)2,-2.172945017678572
mp-1195904,AlZnB5H21C6(NO2)5,-1.159467276062925
mp-1244868,Al2O3,-3.210908088599999
mp-1244874,Al2O3,-3.187087249999999
mp-1244878,Al2O3,-3.221613839199999
mp-1244887,Al2O3,-3.2081808543
mp-1244892,Al2O3,-3.180039557699999
mp-1244898,Al2O3,-3.19684221
mp-1244909,Al2O3,-3.255088887199999
mp-1244918,Al2O3,-3.140182013699999
mp-1244928,Al2O3,-3.1929039603
mp-1244930,Al2O3,-3.244453830799999
mp-1244937,Al2O3,-3.2125296453
mp-1244940,Al2O3,-3.2373862449
mp-1244947,Al2O3,-3.258001408699999
mp-1244954,Al2O3,-3.2323775404
mp-1244967,Al2O3,-3.2549415863
mp-1244970,Al2O3,-3.185849433899999
mp-1244981,Al2O3,-2.9921398197999993
mp-1244982,Al2O3,-3.232635762499999
mp-1244992,Al2O3,-3.219981943699999
mp-1244994,Al2O3,-3.187712861399999
mp-1244997,Al2O3,-3.155683487799999
mp-1245008,Al2O3,-3.206686923899999
mp-1245023,Al2O3,-3.1979182156
mp-1245024,Al2O3,-3.2138572088
mp-1245036,Al2O3,-3.195430974099999
mp-1245037,Al2O3,-3.2347358604
mp-1245043,Al2O3,-3.2047291178
mp-1245052,Al2O3,-3.234769900599999
mp-1245055,Al2O3,-3.2096260451
mp-1245056,Al2O3,-3.259874261799999
mp-1245063,Al2O3,-3.2225968457
mp-1245065,Al2O3,-3.209142319599999
mp-1245080,Al2O3,-3.249555512899999
mp-1245081,Al2O3,-3.225427740799999
mp-1245104,Al2O3,-3.16067864
mp-1245110,Al2O,-1.720063567407406
mp-1245111,Al2O3,-3.2658538131
mp-1245173,Al2O3,-3.272600361699999
mp-1245183,Al2O3,-3.226366993299999
mp-1245191,Al2O3,-3.248761434399999
mp-1245196,Al2O3,-3.1945276731
mp-1245215,Al2O,-1.720125807777777
mp-1245234,Al2O3,-3.217383678699999
mp-1245237,Al2O3,-3.208091208899999
mp-1245251,Al2O3,-3.217814446999999
mp-1245254,Al2O3,-3.188137100599999
mp-1245262,Al2O3,-3.266351168899999
mp-1245265,Al2O3,-3.1951873612
mp-1245279,Al2O3,-3.232979468899999
mp-1245323,Al2O3,-3.009694922999999
mp-1247838,Al2Se3,0.8037999825625001
mp-1247839,Al2O3,-2.8852158142500013
mp-1247846,Al2O3,-3.212082935999999
mp-1247880,Al2O3,-3.326816953
mp-1247896,Al2O3,-3.231849478750001
mp-1359927,Al2O3,-2.487282496499999
mp-1376661,Al2S3,-0.30627949402083304
mp-643430,Al2S3,-0.691037594354166
mp-684591,Al2O3,-3.30116479525
mp-684677,Al2O3,-3.2653915165000003
mp-684713,Al2O3,-3.223608216
mp-684990,Al2O3,-3.2317083046666673
mp-685036,Al2O3,-3.31575971325
mp-699208,Al2S3,-0.7422107400208321
mp-723985,Al2O3,-0.8655523580000001
mp-752826,Al2O3,-3.3327945424
mp-988253,Al2S3,0.860599957312499
mp-2637304,Al2O3,-2.643370957000001
mp-782035,Al2O3,-3.336473075333334
mp-1245211,Al2O3,-3.37749066775
mp-7048,Al2O3,-3.409391490000001
mp-754812,Al2O3,-3.341665016000001
mp-9254,Al2Te5,-0.40193999714285505
mp-1229048,Al2Ni3,-0.528356531
mp-12794,Al2Cu,-0.05815897999999901
mp-2378,Th3Al2,-0.255775634999992
mp-1071777,SrAl2,-0.27072869999999905
mp-759943,Al2O3,-3.391415691124999
mp-1039192,MgAl2,0.668954031666666
mp-1106135,Ho3Al2,-0.37944968699999804
mp-13470,Zr3Al2,-0.4503824825
mp-16508,Lu3Al2,-0.37816298399999304
mp-16723,Y3Al2,-0.3856520915
mp-31181,Er3Al2,-0.373521389499998
mp-571624,Dy3Al2,-0.37773842549999803
mp-8462,Hf3Al2,-0.37701472700000505
mp-980938,Tb3Al2,-0.37605839100000005
mp-982635,Tm3Al2,-0.381802175000004
mp-1009834,Al2Ru,-0.7613669216666681
mp-7188,Al2Os,-0.670291663333335
mp-1182936,Al2Mo3,0.12278371749999901
mp-1198386,Al2Mo3,0.040766610678571
mp-29502,Al2Te3,-0.559024813749999
mp-754531,Al2O3,-3.319276747500002
mp-755066,Al2O3,-3.337622148
mp-998,Al2Cu,-0.16506810666666602
mp-1102064,MgAl2,0.029713202499999
mp-567705,TiAl2,-0.47273808805555406
mp-684638,Al2S3,-1.234006491687499
mp-685120,Al2Se3,-0.9808548856874991
mp-1247924,Al2Te3,-0.47936126450000205
mp-1247927,Al2Se3,-0.9286022904375001
mp-754624,Al2O3,-3.351824882000001
mp-1182923,Al2O3,-3.330630330999999
mp-32570,Al2O3,-3.387026966500001
mp-985587,Al2O3,-3.216492775666667
mp-684676,Al2S3,-1.100135145354166
mp-755483,Al2O3,-3.323472524000001
mp-755175,Al2O3,-3.344650779
mp-1206713,Al2Zn,0.024578678333333003
mp-1222013,MgAl2,0.050633344166667
mp-1228448,Al2O3,-3.183729795
mp-16506,Li3Al2,-0.20584683
mp-1079029,Al2S3,-1.195626505687499
mp-1143,Al2O3,-3.426551008
mp-2654,Al2S3,-1.236182702020833
mp-12524,Al2W,-0.058215970888887004
mp-2352722,Al2O3,-3.229303001666667
mp-669,ThAl2,-0.509280889999999
mp-1094116,MgAl2,-0.011892303333333002
mp-12657,HfAl2,-0.514484086666667
mp-2772,ZrAl2,-0.6153121733333341
mp-569744,UAl2,-0.279739967500001
mp-1204001,Sr3Al2,-0.07894595912962901
mp-638765,Al2O3,-2.62658644
mp-776475,Al2O3,-3.391516563250001
mp-1105018,Al2O3,-2.555877631
mp-1206714,Al2Sn,0.31592689833333504
mp-1502,Al2Pt,-0.989689963333328
mp-16522,Al2Pd,-0.644575986666666
mp-2647,Al2Au,-0.49509397333333505
mp-8022,Al2O,-0.14153484833333302
mp-985806,Al2Cu,-0.21265698333333302
mp-1189,PrAl2,-0.53734372222222
mp-1208,ErAl2,-0.57291119111111
mp-1211134,LiAl2,0.227009688611111
mp-1234,LuAl2,-0.550240265555553
mp-1638,SrAl2,-0.271503493333333
mp-16720,ThAl2,-0.44760364833333205
mp-19923,GdAl2,-0.5716702799999991
mp-20111,EuAl2,-0.43316214833333305
mp-20660,NpAl2,-0.40101239458333204
mp-2088,CeAl2,-0.502238053333333
mp-21416,PuAl2,-0.522911192916666
mp-2322,YAl2,-0.5829048933333331
mp-2358,SmAl2,-0.576745099999998
mp-2404,CaAl2,-0.355376705
mp-2694,LaAl2,-0.544782338333332
mp-391,HoAl2,-0.581286311666666
mp-400,NdAl2,-0.5581772608333321
mp-472,UAl2,-0.24033869666666402
mp-551,BaAl2,-0.198847718333334
mp-756,TbAl2,-0.5907180399999981
mp-803,DyAl2,-0.5868704383333321
mp-813,ScAl2,-0.530798523333333
mp-858,TmAl2,-0.5705990833333341
mp-969,YbAl2,-0.5678372516666671
mp-2254,Al2O3,-3.405725549250001
mp-754401,Al2O3,-3.331427151
mp-2716377,NaNbAl3P3(SO8)3,-2.618975035175464
mp-2716483,NaTaAl3P3(SO8)3,-2.653425001480225
mp-2716559,Na5TiAl3Si3(SO8)3,-2.654751535198203
mp-2716565,Na5Al3Si3Sn(SO8)3,-2.534791169941793
mp-684810,BaSm5Al3Si9N20O,-1.561949702051281
mp-695635,Li3Al3P3H2O14F,-2.852215941016482
mp-720222,Na3CaAl3Si3SO16,-3.011939487468071
mp-772922,Al3P3H9C2NO13,-2.008765764038017
mp-1220864,Na8Al3Ga3Si6(ClO12)2,-2.880626328337707
mp-1221241,NaMg6Al3Si6(BO10)3,-2.844099041201618
mp-729027,NaMn6Al3H42(SO19)2,-1.645812237026799
mp-684728,Ba2Tm2Al3Si5N11O3,-0.371177769230771
mp-684935,Ba2Ho2Al3Si5N11O3,-1.3609797130769241
mp-685002,Sr2Er2Al3Si5N11O3,-1.491995502692308
mp-1173736,Na3CaAl3Si3SO16,-3.017754032653256
mp-1253229,Na3CaAl3Si3CO15,-2.757258111505305
mp-705635,Na3CaAl3Si3CO15,-2.731653271120689
mp-1208635,SrErAl3SiN4O3,-2.351537198076923
mp-1214427,BaErAl3SiN4O3,-2.360687586923077
mp-1228335,Ba4TiAl3P4(O5F)4,-3.185414177830688
mp-534838,Ca10Ta3Ti4Al3(SiO5)10,-3.453196465191667
mp-738697,Al3P4H18C3N3O16,-1.6757538280015192
mp-535042,Na4Al3Ge3B(HO3)4,-2.176103419988292
mp-694981,Na4Al3Si3B(HO3)4,-2.5706403129512543
mp-1211222,Na2Al3Si3HNO12,-2.192031952114028
mp-1173717,Na4Al3Si3CNO13,-2.8438506594206903
mp-1233034,BaMgAl3P2(HO7)2,-2.660692932468944
mp-1202100,Al3P3H7CNO13,-2.21151084067602
mp-1204696,Al3P3H8C2NO13,-1.967621734755953
mp-1233007,BaLiAl3P2(HO7)2,-2.593113149787784
mp-1233091,BaMgAl3P2(HO7)2,-2.555586129425466
mp-1233113,BaCaAl3P2(HO7)2,-2.759302755295031
mp-1233466,BaMgAl3P2(HO7)2,-2.624429502903727
mp-1233827,BaMgAl3P2(HO7)2,-2.697600276381987
mp-1235256,BaLiAl3P2(HO7)2,-2.596037357613871
mp-1236170,BaLiAl3P2(HO7)2,-2.415720005439958
mp-43030,Na2Li2Al3Si3ClO12,-3.097443346061968
mp-43068,Na3Al3Si3AgBrO12,-2.931985140034982
mp-699455,Al3P3H9C3NO14,-1.9528037551569262
mp-1203554,Al4Si19,0.232256784347825
mp-632442,Al4C3,0.168746448571429
mp-743752,Al4C3,0.34706567571428604
mp-1217804,Ta11Al4,-0.21359692537777503
mp-568404,Li9Al4,-0.168604108461538
mp-1228713,Al4Ni15,-0.26948496421052304
mp-1228752,Al4Cu15,-0.10831318631579101
mp-1749,CaAl4,-0.220582133999999
mp-1834,NdAl4,-0.33503090149999903
mp-1891,SmAl4,-0.325794486999998
mp-1903,BaAl4,-0.24118154000000003
mp-21109,LaAl4,-0.378442886333333
mp-2289,CeAl4,-0.34670088999999904
mp-2336,PrAl4,-0.33956402233333305
mp-2775,SrAl4,-0.258510972
mp-582799,EuAl4,-0.318779513000001
mp-1228120,Al4Si,0.11491430399999901
mp-1591,Al4C3,-0.23825637285714302
mp-570774,Zr5Al4,-0.462321123888888
mp-593,Al4Cu9,-0.23310230192307702
mp-16515,Al4Ni3,-0.657355097678571
mp-1103934,PrAl4,-0.34535158866666704
mp-1103952,NdAl4,-0.32606324416666405
mp-1104765,LaAl4,-0.372608231666665
mp-1105076,CeAl4,-0.336675205999997
mp-1079618,TbAl4,-0.37634506899999903
mp-1079897,SmAl4,-0.376960544
mp-16520,NpAl4,-0.323540995749999
mp-542776,PuAl4,-0.33747721274999903
mp-574122,UAl4,-0.21038114499999902
mp-1104047,Al4Tc,-0.40843121133333204
mp-30180,Al4Mo,-0.288510692166668
mp-30336,Al4W,-0.16068315466666602
mp-1360989,Al4(FeO4)3,-2.311031379999999
mp-676414,Al4CO,-0.5870419
mp-1247834,Al4B2O9,-2.982852432222223
mp-707703,Th8Al4H11,-0.5112293901992631
mp-1222866,Lu10Al4Ge11,-0.675690976866667
mp-1226088,Dy10Al4Ge11,-0.81423864619999
mp-1227449,Be5(Al2Fe)2,-0.15611592227272703
mp-1229135,Al4B2O9,-3.122525944249999
mp-1253319,Al4(CoO4)3,-2.124343605526316
mp-1360164,Al4(FeO4)3,-2.290809844473684
mp-1362289,Al4(NiO4)3,-2.031542330789473
mp-658046,La8Al4I7,-1.125832599210527
mp-1217285,TiAl4Ni15,-0.443608320166666
mp-1218140,TaAl4Ni15,-0.413417573366662
mp-1220192,Nd5MgAl4,-0.297316690249999
mp-1222004,MgSc5Al4,-0.36585090799999903
mp-1228186,Al4Ni3Pt,-0.7200072549999991
mp-1228288,Al4Ni15Ge,-0.38778100400000204
mp-1228460,Al4Ni15Sn,-0.374563562749998
mp-1228500,Al4Ni15Sb,-0.36512142350000104
mp-1228506,Al4VNi15,-0.393093052999999
mp-1228777,Al4Fe5Rh,-0.238662372
mp-1228788,Al4Ni12C,-0.36303902926470305
mp-1228914,Al4CrNi15,-0.33933116699999805
mp-1025358,Er(Al2Mo)2,-0.37953208999999904
mp-1103635,U(AlFe2)4,-0.17999995999999902
mp-1207708,Y(AlFe2)4,-0.22677861307692201
mp-1208363,Tb(AlFe2)4,-0.22511267051281902
mp-1211236,La(Mg2Al)4,-0.09646766499999901
mp-1212817,Er(AlFe2)4,-0.232088996153845
mp-31008,Na14Al4O13,-2.251951860784205
mp-31252,La5(AlBr)4,-1.271833096923078
mp-1190518,Ta3Al4O14,-3.267546114380951
mp-31408,Al4(B2O5)3,-3.0834730528
mp-1190488,Al4CdO7,-3.094281680416666
mp-3788,SrAl4O7,-3.4642884175
mp-4867,CaAl4O7,-3.463972205833334
mp-1219212,Sm2Al4Fe13,-0.10781381368421
mp-1221730,Mn7Al4V5,-0.273137950344827
mp-1207385,Zr(AlC)4,-0.407802098854168
mp-1211155,La3(Al2Si3)2,-0.5274684296153851
mp-1215929,YMgAl4,-0.25206939583333204