material_id,formula,formation_energy_per_atom
mp-1275201,Mn2CuO4,-1.67853715726601
mp-1275601,Co5CuO8,-1.198312119285713
mp-1383152,Zn2CuN2,0.131152034999999
mp-1406172,Mg2CuN2,-0.468758942166667
mp-1443117,Ca2CuN2,-0.5975445823333361
mp-17272,NbCuO3,-2.2995771384999992
mp-2619703,ZrCuF6,-3.1761368862499992
mp-33916,Nd2CuO4,-2.961350564999999
mp-4541,NaCuO2,-1.362515704094827
mp-510589,MnCuO2,-1.539728060732759
mp-540757,V2CuO6,-1.979166852222221
mp-546035,Cr3CuO8,-1.669175770833333
mp-600449,DyCuSb2,-0.699266190416665
mp-7237,CuAgO2,-0.7054287854166651
mp-752881,Li2CuS2,-0.992759736333332
mp-753268,Li6CuF8,-2.861424501333333
mp-753285,Mg9CuO10,-2.79245543375
mp-753722,LiCuS2,-0.771961742083332
mp-756050,TaCuO3,-2.5028656634666673
mp-756191,Mn5CuO12,-1.557574036091954
mp-756265,Mn4CuO8,-1.663771862440319
mp-758720,Li5CuF6,-2.7918045256944453
mp-760782,Li5CuF6,-2.766724002916666
mp-772088,CuNi4O5,-1.073083811499999
mp-772856,CuHgO2,-0.735518245625001
mp-9158,LiCuO2,-1.450581410833332
mp-996953,CuHO2,-0.9821278028124991
mp-996973,CuHgO2,-0.745885760625001
mp-996978,CuAuO2,-0.6980129299999991
mp-996993,CuBrO2,-0.5552511387499991
mp-997104,CuClO2,-0.48997979375000006
mp-1078469,CuPN2,-0.31488869761904803
mp-12954,CuBS2,-0.592209918541666
mp-14089,TlCuS2,-0.47170749333333306
mp-14090,TlCuSe2,-0.300412359531247
mp-22261,InCuTe2,-0.36635076125000005
mp-22736,InCuS2,-0.6248616814062491
mp-22811,InCuSe2,-0.555774405781249
mp-33975,CuAsSe2,-0.037349940156254
mp-3497,FeCuS2,-0.51443867375
mp-3839,GaCuTe2,-0.34634194499999804
mp-4840,GaCuSe2,-0.5736508945312491
mp-4870,Cu(BO2)2,-2.292747814523806
mp-5238,GaCuS2,-0.6988556876562481
mp-983565,CuBSe2,-0.186407557656249
mp-1096766,CeCuN2,-0.7359856838541691
mp-1096843,BaCuS2,-1.295491313749999
mp-1096857,CaCuS2,-1.170909423906248
mp-1120791,NaCuO2,-1.116546027844827
mp-1147646,LiCuN,0.020943828829364002
mp-1147748,TiCuO3,-2.2287045096666662
mp-1147759,ThCuN2,-0.8864345449999991
mp-1206109,Pr2CuAs3,2.136351537777782
mp-1206361,Er2CuAs3,2.295245324305547
mp-1206807,Yb2CuSb3,2.609604211666664
mp-1206948,Ho2CuSb3,2.3729304650000023
mp-1207090,CuSnPd2,-0.352655063124998
mp-1207127,CuSnPd2,-0.323755740624996
mp-1207168,Tl2CuSe2,0.314883258446428
mp-1207304,Lu2CuAs3,2.309589139444448
mp-1207316,Nd2CuSb3,2.26984066
mp-1207321,Pr2CuSb3,2.204161891111113
mp-1207329,Ho2CuAs3,2.26886596541666
mp-1207334,Hf2CuSi3,4.14317634
mp-1207339,Lu2CuSb3,2.403654961111111
mp-1207340,Dy2CuSb3,2.3580181994444462
mp-1207351,Y2CuAs3,2.253194163749993
mp-1207353,Er2CuSb3,2.336827938333329
mp-1207358,Tm2CuSb3,2.347125235833331
mp-1207362,Tb2CuSb3,2.297858750833332
mp-1207532,Zr2CuSn3,3.3655895125
mp-1209898,Pr2CuSb3,2.201651276111112
mp-1211065,Mg2CuAs2,2.060167373949999
mp-1211109,Na2CuTe2,1.213525907999997
mp-1213092,CuSnPd2,-0.334542776249996
mp-1215438,Zn2CuNi,-0.163784274999999
mp-1216894,TiCuNi2,-0.27521725833333205
mp-1217071,Ti2CuNi,-0.195275134166666
mp-1217096,Ti2FeCu,-0.214271149166666
mp-1217098,Ti4CuAg,-0.08017979527777601
mp-1217672,Tb2ZnCu,-0.28529349333333204
mp-1217677,Tb2CuAg,-0.27149971875
mp-1219913,Pr2CuAg,-0.170103008749998
mp-1223296,La6ZnCu,0.029018198749998003
mp-1223863,InCuTe2,-0.13182438999999802
mp-1224787,GaCuTe2,-0.12829202249999802
mp-1224788,GaCuSe2,-0.32466660953124904
mp-1224981,FeCuPt2,-0.18090464750000002
mp-1225533,Er2GaCu,-0.48224116041666304
mp-3702,FeCuPt2,-0.17729227999999903
mp-37514,SrCuO2,-2.077688422499998
mp-4826,CaCuO2,-2.126880714999999
mp-5841,RbCuC2,0.28430810562499903
mp-639659,InCuPt2,-0.42812896249999705
mp-644280,GaCuPt2,-0.47561765437499903
mp-752398,BaCuO2,-1.9146415899999991
mp-1103166,Nb4CuSi,-0.25692634999999303
mp-1103352,Hf4CuP,-0.530056525773807
mp-581733,Zr4CuP,-0.560960381607143
mp-5981,Ce2Ga12Cu,-0.393675694666666
mp-1080828,KCuF3,-2.35103902345
mp-1147763,Na2CuC3,0.602097679066091
mp-1214056,Ce9In2Cu,0.13742582791666702
mp-1018798,MgCuGe,0.057515437499998004
mp-1018800,MnCuAs,-0.008582396810345
mp-1079070,UCuSb2,-0.337239281250006
mp-1079103,LaCuSb2,-0.8267682850000001
mp-1079261,ErCuSb2,-0.6444590383333301
mp-1079294,TmCuSb2,-0.6265288737500041
mp-1079944,LuCuAs2,-0.864688731666667
mp-1080116,SmCuSb2,-0.7462484062499961
mp-1080126,LuCuSb2,-0.605508999166666
mp-1080469,HfCuGe2,-0.405627747499998
mp-1080791,UCuBi2,-0.12943417000001
mp-1095201,ZrCuGe2,-0.4862800125
mp-10991,YCuAs2,-0.9308459400000011
mp-10992,DyCuAs2,-0.9348328450000021
mp-10993,ErCuAs2,-0.9088039158333351
mp-10994,TmCuAs2,-0.899393981249999
mp-1147715,BaCuS2,-1.387985878749991
mp-1179628,UCuAs2,-0.129127368749998
mp-1205410,CuAgS,-0.083107833159724
mp-1225840,CuAgSe,-0.09986435515045801
mp-19848,PrCuSb2,-0.7671486379166651
mp-19902,UCuAs2,-0.479361888749998
mp-19943,YCuSb2,-0.6912010337500011
mp-19953,ZrCuSi2,-0.49345235750000005
mp-20020,NdCuSb2,-0.765279154374997
mp-20188,GdCuAs2,-0.917849621249999
mp-20401,HfCuSi2,-0.437764233749999
mp-20502,GdCuSb2,-0.7422639949999991
mp-20859,DyCuSb2,-0.6997445091666681
mp-21015,HoCuSb2,-0.6830079387500001
mp-21364,HoCuAs2,-0.92207961
mp-22485,TbCuSb2,-0.707840799999999
mp-2468774,LiCuS,-0.8843155786111101
mp-30195,HoCuP2,-0.967022948988095
mp-30208,YCuP2,-0.9644749189880951
mp-4083,MgCuAs,-0.42087555416666605
mp-542132,YbCuAs2,-0.8933221762499991
mp-672238,CeCuSb2,-0.749206370000004
mp-7194,TbCuAs2,-0.9461431987500001
mp-7433,NaCuSe,-0.7227659013541671
mp-7434,NaCuTe,-0.583685075
mp-1041481,CuTe2O7,-1.016883816666667
mp-1041732,CuMo2O7,-1.649789195166667
mp-1041777,Cr2CuO7,-1.405511147333333
mp-1042407,CuW2O7,-1.702551614333333
mp-1103309,CuWO4,-1.6874590783333332
mp-1103369,CuWO4,-1.6859382441666662
mp-1192382,V2CuO8,-1.389107243636363
mp-505042,Cu(BiO2)2,-1.451445688214286
mp-758688,Li2CuF4,-2.54435526690476
mp-1025439,CsCuC2,0.278357146336206
mp-5256,KCuC2,0.26753606826562404
mp-5425,RbCuC2,0.27727121187500003
mp-884085,Li2CuS2,-0.9868358593333321
mp-1202466,CuSnO6,-0.46155512531250004
mp-1213499,CuSnO12,-0.013487484642856
mp-22271,Cu(AsO2)2,-1.405310342499999
mp-756132,Cu(SbO2)2,-1.47939624142857
mp-1105187,CuPS3,-0.30124887878273904
mp-19970,Li3CuO3,-1.78138969642857
mp-22010,Ta2CuO6,-2.7409152049629633
mp-5831,Cu(SbO3)2,-1.639420865555554
mp-755401,Na3CuO2,-1.3509231665229842
mp-759169,Li2CuF6,-2.142215233703704
mp-761827,Na3CuO3,-1.423653007376847
mp-774745,Li3CuS3,-1.044239608571427
mp-1178012,Li2CuS2,-0.986277473333332
mp-752512,Li6CuO4,-1.83150198590909
mp-754835,Na6CuO4,-1.308793038934168
mp-757177,Li6CuS4,-1.2395102477272721
mp-780217,Li7CuO4,-1.8113065227777772
mp-1021659,K2CuO2,-0.5416731168999991
mp-1025177,Rb2CuF4,-2.511020542142858
mp-1025265,Cs2CuF4,-2.500000421428573
mp-1025338,Tl2CuF4,-1.887073892857143
mp-10498,Pr2CuO4,-2.856606291904762
mp-1069520,Zr2CuH2,-0.41242167050000006
mp-1071623,CuSnAu,-0.096947351666665
mp-1077453,HfCuGe,-0.511830876666667
mp-1077929,La2CuO4,-3.042022152857141
mp-1079782,Cu(N3Cl)2,3.061092152777778
mp-1096312,MgCuPt2,2.047371986250001
mp-1096930,Cu(AgO)2,-0.35630774066666504
mp-1147569,Na2CuO2,-0.7951306405517231
mp-1147636,Li2CuO2,-1.207673423333333
mp-1147641,Na2CuF4,-2.288127832142858
mp-1147713,La2CuS4,-1.784252203750041
mp-1147753,Tl2CuO4,-0.8610877309523831
mp-1147762,Ba2CuO4,-1.8929656221428561
mp-1147780,K2CuH4,-0.10669821071428501
mp-1178367,Dy2CuO4,-3.090138771904759
mp-1181522,Cu(BrN3)2,1.9803053422222212
mp-1181539,Cu(BrN3)2,1.784652179999999
mp-1205943,Cu(IN3)2,2.386129995555555
mp-1207070,TiCuNi2,-0.346954685833332
mp-1207073,Tl2CuSe2,-0.202806839553574
mp-1207270,Tl2CuTe2,0.20286870199999701
mp-1222162,Mg4CuO5,-2.5799940795
mp-1225756,CuNi4O5,-1.091432715499999
mp-1232320,Cu(HgN)2,1.175829761999995
mp-1232323,Cu(BiO2)2,-1.375229762857143
mp-1245897,Ba2CuN2,-0.44510620800000006
mp-1246496,Sr2CuN2,-0.563048731875011
mp-1247500,Fe2CuN2,-0.013655132
mp-19735,La2CuO4,-2.971538255714286
mp-2042825,Cs2CuF6,-2.189869759999999
mp-20476,In2CuO4,-1.446523719047617
mp-21376,Nd2CuO4,-2.872120469285713
mp-22306,Eu2CuO4,-2.517811431428571
mp-30534,UCuP2,-0.7918317589880951
mp-4158,Nd2CuO4,-2.9721301721428572
mp-4181,Pr2CuO4,-2.937306323333335
mp-4210,Sm2CuO4,-3.019895257142858
mp-4860,Gd2CuO4,-3.059107154285715
mp-5127,LiCuO,-1.432946590277778
mp-540999,Cs2CuO2,-0.24500628786206902
mp-554352,Ba2CuF6,-3.380004854444445
mp-5699,K2CuF4,-2.523815685642856
mp-7469,NaCuO,-1.226059258793103
mp-7470,RbCuO,-1.188898820833333
mp-753371,LiCuS,-0.86016902361111
mp-754322,Sr2CuO4,-2.185755024285735
mp-754327,Ho2CuO4,-3.096600875714283
mp-754364,Y2CuO4,-3.042421007142857
mp-7911,KCuO,-1.217806291583332
mp-8287,SmCuP2,-0.9522152664880941
mp-974690,Rb2CuCl4,-1.681490217857142
mp-1040999,CuTeO4,-1.056261502569443
mp-1041001,CuSbO4,-1.173195239166665
mp-1041019,CuReO4,-1.7613775522916661
mp-1041088,CuBiO4,-0.9007449418750001
mp-1041470,CrCuO4,-1.325583306041666
mp-1047798,CuMoO4,-1.5326413147916682
mp-1047807,CuWO4,-1.6172130954166661
mp-10495,NdCuS2,-1.602238972656248
mp-1100986,Tm2CuO4,-3.157202510714287
mp-1102554,CuClO,-0.757350753333333
mp-1104057,Cu(CO2)2,-0.963404925714286
mp-1105457,TlCuCl3,-1.079016908166669
mp-1105578,CuNCl3,0.568228502499999
mp-11790,LaCuSe2,-1.547132725156249
mp-11791,CeCuSe2,-1.444346102421874
mp-11792,PrCuSe2,-1.449590298072916
mp-11793,SmCuSe2,-1.44437593328125
mp-1181537,CuPO5,-1.351393367806123
mp-1181749,Cu(CO4)2,-0.7703326768181811
mp-1182377,Ba2CuO6,-1.446450925555555
mp-1188790,Cu(SbO3)2,-1.644236641666665
mp-1191430,CuCl3O2,0.148158263333333
mp-1192806,Cu(CO2)4,-1.301644880384615
mp-1192899,Cu(CO4)2,-0.760949211363636
mp-1193103,CuSeO5,-0.511536097477678
mp-1201134,Cu(CO3)2,-0.8025262605555551
mp-1202347,Cu(ClO7)2,0.348323555588234
mp-1204490,Nb2CuO6,-2.529519172777778
mp-1210463,Na3CuF6,-2.5268329995
mp-1213604,CuCl3O2,-0.011603862916666001
mp-1217751,Tb3CuSe6,-1.704865274156249
mp-1221692,MnCuSe4,-0.39895784095546105
mp-1225955,CuP7I,-0.089084089305554
mp-1226070,CoCuS4,-0.30687424437500005
mp-1226309,CrCuS4,-0.6450230708333321
mp-12984,TbCuSe2,-1.45312432783854
mp-1337320,CaCuF5,-2.723776985357143
mp-1348904,TaCuO4,-2.075501428513888
mp-1349740,VCuO4,-1.559282197291667
mp-1369804,ZnCuF5,-2.015590484285713
mp-1377308,MgCuF5,-2.5064370832142853
mp-16684,PrCuS2,-1.593449684322916
mp-17336,NpCuSe2,-1.020549030859375
mp-22420,CuTeO4,-1.2306512961111111
mp-27383,Nb3CuO8,-2.697000756458333
mp-27450,KCuCl3,-1.29111858725
mp-27548,CuTe2O5,-1.329466686979167
mp-2763763,CuAgF3,-1.5645383039999992
mp-2763899,Li2CuF4,-2.587177959047619
mp-2764589,LiCuF3,-2.347362580833333
mp-28073,UCuO4,-2.674525173333331
mp-28568,Rb3CuO2,-1.237837759583333
mp-29279,CuClF10,-0.7282879806250001
mp-29300,Ga2CuCl8,-1.081108948181818
mp-29567,CuSe2Br,-0.584083218046874
mp-30971,CuTe2Cl,-0.331452256250003
mp-31036,CuTe2Br,-0.547720050208331
mp-31037,CuTe2I,-0.42627028770833103
mp-31038,CuSe2Cl,-0.336460636406249
mp-31273,La2CuS4,-1.887795424464284
mp-3237,Na2CuF4,-2.5134085542857143
mp-3739,NdCuSe2,-1.452259168281248
mp-4841,LaCuS2,-1.686310688906248
mp-504265,CuPO4,-1.887335596607143
mp-505085,NaCuF3,-2.3087606975
mp-5081,SmCuS2,-1.631051361874998
mp-510471,GdCuS2,-1.57731090640625
mp-510528,GdCuSe2,-1.410129850156249
mp-554440,CuSeO3,-1.08423761521875
mp-554874,CuGeO3,-1.530489167499999
mp-557055,CuClF10,-0.6936185260416661
mp-558040,CuMoO4,-1.572588993750001
mp-558696,CuTeO3,-1.238739726333333
mp-5737,TbCuS2,-1.60526750890625
mp-5766,CeCuS2,-1.628191004531251
mp-636978,KCuCl3,-1.269174218249968
mp-673017,CuPO4,-1.755735721190475
mp-676060,Gd2CuO4,-3.030211310714286
mp-676104,Tm2CuO4,-2.944958580714287
mp-677055,ScCuSe2,-1.285297731093749
mp-752831,LiCuF2,-2.213028299166665
mp-753257,LiCuF4,-2.123160671944444
mp-753405,LiCuF3,-2.332669885333333
mp-753748,Li3CuS2,-1.154751894583333
mp-755530,Na3CuO2,-1.345845503606317
mp-756495,Li3CuO2,-1.651503665833333
mp-758320,Li2CuF4,-2.581747712619045
mp-759901,Li3CuF6,-2.585976491666659
mp-760595,CuCO3,-1.335346553
mp-760798,Li2CuF5,-2.364089374770834
mp-762222,Li2CuF4,-2.5745543536904743
mp-765341,LiCuF4,-2.11983325452778
mp-766856,CuPO3,-1.903254881678571
mp-772192,CuPO3,-1.920938612678572
mp-781976,Li2CuF5,-2.413458941958334
mp-859100,Li2CuF5,-2.335637820708333
mp-1096790,CuPbBr3,-0.517276708999999
mp-1096939,CuGeI3,-0.036181140999999
mp-1096988,GaCuBr3,-0.49281855049999906
mp-1147650,KCuH3,-0.069324284999999
mp-1197841,Pr6Fe13Cu,0.02276088075
mp-1198821,Nd6Fe13Cu,0.004502687500000001
mp-12265,SrCuF4,-3.033043213333332
mp-12266,CaCuF4,-3.043225753333333
mp-1232302,RbCuCl3,-1.4847116834999992
mp-13020,Ti5CuSb2,-0.43095703916666506
mp-1412709,MgCuF4,-2.731924700000002
mp-34765,Tl4CuTe3,-0.20521094291667002
mp-3682,KCuF3,-2.35406145645
mp-540921,CsCuF4,-2.108593645
mp-556045,KCuF3,-2.222734243449999
mp-560238,K2CuF4,-2.534802429214285
mp-669347,KCuF3,-2.35644909645
mp-753541,LiCuF4,-2.103354136611113
mp-8858,RbCuF3,-2.337212868500001
mp-9075,CdCuF4,-2.150013655
mp-1023125,MgCuO2,-1.910919788749999
mp-1078460,Li2CuSn2,-0.31013836633333103
mp-1103973,Cr2CuO4,-1.936370315714286
mp-1104542,Cu(RhO2)2,-1.048218977857142
mp-1208819,Sr4CuO2,-1.233960942857142
mp-1274535,Mn2CuO4,-1.6568613701231532
mp-38505,GaCuSe2,-0.33760031578125005
mp-5725,CuAg3S2,-0.10558837246527701
mp-676248,GaCuTe2,-0.14236440124999902
mp-676764,InCuSe2,-0.351030048281248
mp-753741,Li3CuS2,-1.1420360720833331
mp-757235,Li2CuF4,-2.569177474761903
mp-2865,K2CuF4,-2.538746708499999
mp-673047,CuPO4,-1.787541203829364
mp-1220463,Nb6CuSe8,-0.782619534833304
mp-1104894,Cu(Mo3Se4)2,-0.507821640833337
mp-1176440,MnCuO3,-1.426801526586206
mp-1204344,Ga40CuMo8,-0.13753717795918402
mp-1204686,CuSiO4,-1.6602930277777772
mp-1225702,CuNi3S8,-0.5426060166666651
mp-13906,CuSnF6,-2.312158153749999
mp-504580,VCuO3,-1.7961252550000002
mp-556093,CuMoF6,-2.34468623125
mp-556982,CuSiO3,-2.272638924666667
mp-753063,Li3CuF6,-2.5990478825
mp-760122,Li2CuF4,-2.506256717142856
mp-772255,CuPO3,-1.9813016345952381
mp-776320,CuAsO3,-1.258795363499999
mp-8096,ZrCuF6,-3.167779554999999
mp-1338333,EuCuO3,-1.973380389500001
mp-1404142,MgCuF5,-2.508810295
mp-1442904,CaCuF5,-2.7129337325
mp-17224,Cu(PO3)2,-2.232536408253967
mp-2234126,Co2CuO4,-1.032441221428572
mp-2456411,CsCuCl3,-1.329478789166664
mp-25976,Cu(PO3)2,-2.20278164047619
mp-29199,BaCuN,-0.46787788888888804
mp-3199,CuSe2O5,-1.133686287460938
mp-556202,Cu(CO)4,-0.809790402777777
mp-568857,RbCuCl3,-1.4624409555
mp-753130,Li4CuF7,-2.619137209027782
mp-759433,Li3CuF5,-2.6583235177777773
mp-760255,Li3CuF6,-2.606449026166666
mp-1001780,LuCuS2,-1.582860885572916
mp-1100834,YbCuSe2,-1.39869905078125
mp-1100868,YCuTe2,-1.091764340833332
mp-1173103,TbCuTe2,-1.059656125000003
mp-1173121,TbCuSe2,-1.44702142096354
mp-1216081,Y2Ga3Cu,-0.594998485416672
mp-1216524,Tm2Ga3Cu,-0.6712159700000011
mp-1216671,TmCuTe2,-1.014480288749997
mp-1217694,Tb2Ga3Cu,-0.687249946666668
mp-1217750,Tb2In3Cu,-0.523686466319441
mp-1219195,Sm2Ga3Cu,-0.6659421133333341
mp-1219253,Sm2In3Cu,-0.5390951709259231
mp-1219312,ScCuSe2,-1.2759521857812501
mp-1219849,Pr2Ga3Cu,-0.6261797705555541
mp-1219982,Pr2In3Cu,-0.533435823336811
mp-1220384,Nd2Ga3Cu,-0.6465198858333321
mp-1220595,Nd2In3Cu,-0.5410004113055701
mp-1220686,Nb2CuSe4,-0.83127461380955
mp-1220691,Nb2CuS4,-1.201959642857142
mp-1222365,Lu2Ga3Cu,-0.5716077326388911
mp-1223815,HoCuSe2,-1.413720488281249
mp-1223982,Ho2In3Cu,-0.376940266666663
mp-1223996,InCuS2,-0.550714575156249
mp-1224004,Ho2Ga3Cu,-0.5904729254166621
mp-1224687,Fe2CuS3,-0.46781910874999905
mp-1224973,FeCuNi,0.070801999999999
mp-1225283,DyCuTe2,-1.0497654112500001
mp-1225325,Dy2Ga3Cu,-0.6843461983333321
mp-1225405,Dy2In3Cu,-0.5113932844444471
mp-1225521,ErCuTe2,-1.022712580833328
mp-1225597,Er2Ga3Cu,-0.6723941694444421
mp-1225615,Er2In3Cu,-0.481897408611108
mp-1225664,CuNiAu,0.12543948333333302
mp-1225670,CuSi2P3,-0.06129259690361501
mp-1225675,CuPS2,-0.061144175874023
mp-1225680,CuGe2P3,0.025534740317461002
mp-1225685,CuNiPd,0.036541376666666
mp-1225697,CuPSe2,-0.005340156525301
mp-1226514,InCuSe2,-0.49541976953124905
mp-1226999,Ce2Ga3Cu,-0.5681227050000001
mp-36209,TmCuSe2,-1.403794262031251
mp-569933,HfCuP,-0.063840678214284
mp-675180,ErCuSe2,-1.4058667453645841
mp-675349,DyCuSe2,-1.4194057257812491
mp-675902,YCuSe2,-1.420380104531247
mp-677241,LuCuSe2,-1.3849932211979161
mp-685330,Mn2CuO4,-1.643775537027915
mp-686094,Ti3CuS6,-1.486523869083332
mp-6980,ScCuS2,-1.474168582656251
mp-753211,FeCuS2,-0.46560020375000005
mp-754912,LiCuO2,-1.343571805833332
mp-1096975,FeCuS2,-0.507492421249999
mp-1096985,GaCuS2,-0.523712357656243
mp-1097021,InCuS2,-0.5427530701562481
mp-1219957,Pr2Co16Cu,0.0064951979166550005
mp-1222779,Li2CuGe,0.142608159583333
mp-1224030,InCuO3,-1.371780006333332
mp-1224060,InCuTe2,-0.321630287499999
mp-1224825,GaCuTe2,-0.29657545499999904
mp-1225707,CuSbTe2,0.050894474166667
mp-1225800,CuSi4P3,0.078561064217261
mp-1226246,CrCuS2,-0.551393798749998
mp-1245564,YCuO,-1.816063635
mp-2214547,Fe5CuO8,-1.402019826428573
mp-29643,CuAsSe2,-0.06373357765625401
mp-35308,CuCN,0.23871636249999803
mp-36921,Mn2CuO4,-1.636304126551725
mp-39091,Co2CuO4,-1.168799279999999
mp-530196,Mn2CuO4,-1.6072119610160112
mp-555345,CrCuS2,-0.582945566249998
mp-568587,CrCuSe2,-0.603306463671874
mp-5862,CrCuS2,-0.768421636249998
mp-767157,Ti16CuS32,-1.553421383945577
mp-7861,CrCuSe2,-0.40821646867187406
mp-758052,LiCuF3,-2.325024607333334
mp-1217381,Ti10CuSn6,-0.361894864509806
mp-1224607,Hf10CuSn7,-0.39755268583331305
mp-1025305,Nb2CuS4,-0.755203854285714
mp-11834,CuNiSb2,-0.127051317500001
mp-1206396,TmCuTe2,-0.9500599387499981
mp-1206615,LuCuTe2,-0.9763717175000001
mp-1206626,HoCuTe2,-0.9693260240624961
mp-1206648,TbCuTe2,-0.9883804906250041
mp-1206650,ErCuTe2,-0.955840468333327
mp-1206723,HoCuSe2,-1.319713290781248
mp-1206775,YbCuSe2,-1.302618533281251
mp-1215276,ZrGaCu,-0.298976574166667
mp-1215641,YbCuGe,-0.360277351666667
mp-1215959,YCuGe,-0.355802726666665
mp-1216970,TiGaCu,-0.19977107027777702
mp-1217584,TbCuGe,-0.460793048333329
mp-1217624,TbCuTe2,-1.055363074375005
mp-1222379,LuCuGe,-0.325803593888888
mp-1222408,LuCuSn,-0.267730038888885
mp-1225449,DyCuGe,-0.45112444833333604
mp-1225563,ErCuGe,-0.35159792833333103
mp-1225794,CuWSe2,-0.177686024531251
mp-1225954,DyTlCu,-0.227941463000002
mp-1227675,Ce2Co16Cu,-0.044262543157893006
mp-1246758,Fe2CuN2,-0.039004544
mp-675589,Li2CuP,-0.6264893328273821
mp-1096940,CuBO2,-1.359682192291666
mp-1096943,CuBrO2,-0.521335466249999
mp-1215861,Yb2Fe3Cu,-0.055668985000001
mp-1222135,Mg2CuSi3,0.090997296666666
mp-1224815,GaCuTe2,-0.15811368249999802
mp-1225055,Er2Co3Cu,-0.20070957333333403
mp-1225556,Er2Fe3Cu,-0.093389254999998
mp-1225678,CuBiSe2,-0.21344164046874703
mp-1225749,CuNiO2,-0.9354146349999991
mp-1225790,CuNi3O4,-1.054165132499998
mp-1246591,Co2CuN2,0.26000223249999904
mp-1247448,Mn2CuN2,-0.095950941543104
mp-13694,PrCuO2,-2.581216355416654
mp-13695,SmCuO2,-2.65674744375
mp-13696,EuCuO2,-2.285445806249987
mp-14116,CuRhO2,-0.9612006149999991
mp-20072,LaCuO2,-2.689203321249986
mp-20930,InCuO2,-1.482684894166666
mp-2234128,Mn2CuO4,-1.658153534408867
mp-25372,LiCuO2,-1.382593593333333
mp-27999,K5CuSb2,-0.48333012234374906
mp-29450,CuSe3I,-0.168803863406249
mp-37779,Fe5CuO8,-1.46461343
mp-4280,GaCuO2,-1.6747150606249912
mp-4636,ScCuO2,-2.724419158750001
mp-4886,NdCuO2,-2.610852319374999
mp-504711,CoCuO2,-0.9799229074999991
mp-510281,FeCuO2,-1.3211116262499991
mp-510625,CrCuO2,-1.784819649999986
mp-559918,Ti2CuS4,-1.41592737202381
mp-578606,NaCuO2,-1.225822247844827
mp-6972,YCuO2,-2.7117992875
mp-753098,LiCuF2,-2.229860786666666
mp-753202,Li5CuF8,-2.766525747380952
mp-754126,CuAuO2,-0.675147459999999
mp-754472,HoCuO2,-2.754892171249999
mp-756513,Mn3CuO8,-1.4535339478160911
mp-756525,Mn3CuO8,-1.464931576149425
mp-761404,Co5CuO8,-1.256502019642857
mp-8927,TaCuN2,-0.7294109617291681
mp-996967,TlCuO2,-0.926377553333335
mp-997181,VCuO2,-1.7377607425
mp-999135,TaCuN2,-0.470015289229166
mp-3474,LaCuO3,-2.4238557999999992
mp-772548,SmCuO3,-2.378626029999999
mp-779545,Na3CuO2,-1.310521685689654
mp-861228,Li3CuS2,-1.154259101666666
mp-998422,CuAgF3,-1.540290233999999
mp-1192725,Pr4CuS7,-1.902620113107628
mp-760536,CuCO3,-1.299431051333334