material_id,formula,formation_energy_per_atom
mp-698351,AgH6C4(NO)2,-0.44025572044444405
mp-1196678,InAgP2(HO4)2,-2.055145711258503
mp-1197263,AgH10Rh(N3O5)2,-0.769085047202381
mp-1199019,AgSbS(OF3)2,-2.14160334219697
mp-1199390,AgH20S6N5O9,-0.847204696077235
mp-1200256,AgCS2(O2F)3,-1.585506601858973
mp-1201487,AgPHNO2,-1.264748006954364
mp-1201826,AgH9C2(NO)2,-0.597249519869792
mp-1202721,AgH6C2N5O4,-0.45310240800925905
mp-1204011,AgH7CN8O7,-0.40379953230902704
mp-1215034,AgH4C2S2N3,-0.263346677430554
mp-1215075,AgH2C7O3F5,-1.04282624787037
mp-1215161,AgC2S2N4Cl,0.741330343660719
mp-555575,Rb2AgC3(SN)3,-0.44540221576388805
mp-557393,K3AgC4(SN)4,-0.399467290564231
mp-560182,AgH11C4(SO)3,-0.437502573428029
mp-680232,K2AgC3(SN)3,-0.34139916459893205
mp-707364,AgH3CN3O4,-0.518342588055556
mp-738633,AgB10H26C6N,-0.13386164649621102
mp-532537,Ca2Mn2V3AgO12,-2.478970691126436
mp-705890,Ca2V3Ni2AgO12,-2.297323727083334
mp-726140,Ca2V3Co2AgO12,-2.149128551708334
mp-1188917,AgCS(OF)3,-1.581723105462963
mp-1194934,AgH6CSN3,-0.29794602743055504
mp-1210177,NaMn3Ag(PO4)3,-2.379142602788381
mp-24706,Co3AgP3(HO6)2,-1.9865283087188201
mp-24731,Ni3AgP3(HO6)2,-1.9717721725283441
mp-542292,Mn3AgAs3(HO6)2,-1.71578699168856
mp-1043707,MgTiAg(PO4)3,-2.524876952718253
mp-1043747,CaTiAg(PO4)3,-2.619693126051586
mp-1043771,TiZnAg(PO4)3,-2.345600785496031
mp-1215103,AgH12C6N13O3,-0.418916621190477
mp-1235680,LiZn2AgWO6,-1.735378479545453
mp-2218704,YMgAg(WO4)2,-2.219460739743589
mp-559606,ScCr2Ag(H2O5)2,-1.73466522787037
mp-664427,ScCr2Ag(H2O5)2,0.37935573712963006
mp-677611,TlAgAs2PbS5,-0.508144277249999
mp-759408,AgH8C4N8F,-0.36511179212121103
mp-1195220,BaAgSbS3O,-0.9674813361309511
mp-560619,AgH12C6N5O3,-0.23911662524691402
mp-1076287,La6Sm2Co7AgO24,-2.402623328541667
mp-1201087,AgWC9S4N3,0.8355699112214791
mp-1226881,CsNb4Ag(PS10)2,-1.005834277164554
mp-725545,AgWC9S4N3,1.28835057872148
mp-1226317,CrAgSn(SeS)2,-0.6980410130505941
mp-686747,K2Nb6Ag(PO8)3,-2.828975649724867
mp-1226965,Cd2GaAg(SeS)2,-0.698483738606769
mp-1194697,AgB5H6N2Cl5,-0.726163926249999
mp-24058,AgBH2OF4,-2.163186291203704
mp-680197,KAgC2(SN)2,-0.23707040509399402
mp-697268,AgH2SNO3,-1.016621968177083
mp-707277,AgH2C2N3O,-0.36724816393518606
mp-555253,La5Ti2AgS5O7,-3.061508407541667
mp-703539,AgB11H6CBr6,-0.489973033799999
mp-1043917,CaLaFeAgO6,-2.172619369416667
mp-1043932,LaMgFeAgO6,-2.035993704916666
mp-1044078,LaZnFeAgO6,-1.767167328166667
mp-1049227,LaMgCrAgO6,-2.119611355166666
mp-1076249,La5Sm3Ni7AgO24,-2.309614046541666
mp-1099698,La4Sm4Co7AgO24,-2.3734746367916673
mp-1226974,Cd2GaAg(SeS)2,-0.7121552636067691
mp-1103149,AgMoH4S4N,-0.578132262878787
mp-1183000,AgC8S4N4Cl,0.8842600724007931
mp-1183010,AgC8S4N4Cl,0.849918252956347
mp-643431,AgH4WS4N,-0.59661094560606
mp-1200633,AgH12C4Se5N,-0.22923165688632202
mp-698405,AgH12C4S5N,-0.234531712137681
mp-2231980,MgScCr2Ag(H2O5)2,-1.83244836245614
mp-866657,DyAgH2C2SO9,-1.923310132708333
mp-866806,TbAgH2C2SO9,-1.9233756202083332
mp-1196199,AgH36S8I2(N3O4)3,-0.82507733612745
mp-1205035,AgH28S8Br2(N3O4)3,-0.666901973527777
mp-849798,AgH36S8Br2(N3O4)3,-0.837999660539215
mp-556201,AgSbC2N2(ClF3)2,-1.378304703690475
mp-1183028,AgP2H8SN7O2,-0.539852775164399
mp-1194141,AgSbC2N2(ClF3)2,-1.40492585047619
mp-1196380,SmAgH4C2SO10,-1.804252106008772
mp-1199373,AgH8C3S2ClO4,-0.341327491074561
mp-1202066,AgH8C2S2BrN4,-0.42905558425925805
mp-1202929,AgH8C2S2N4Cl,-0.45229489342592605
mp-1204384,AgH10S8N8ClO6,-0.178389345122547
mp-559834,AgBTe4C(OF4)5,-2.16085398859375
mp-605808,AgH8C4S3(OF)3,-0.747611664109848
mp-630391,CsZnAgC4(SN)4,-0.301684750254789
mp-696992,AgP2H8SN7O2,-0.528217666378968
mp-1196463,AgH12C4S2N5O3,-0.423450542746914
mp-1199708,TbAgH10C20(N3O4)2,-0.567809149692028
mp-1204019,NdAgH10C20(N3O4)2,-0.564743396123189
mp-640564,AgSbC6N4(OF3)2,-0.928049249833333
mp-1215142,AgBHC12(NF2)9,-1.1526269053472231
mp-1196797,AgAsS16N16(O4F3)2,-0.40081400467013806
mp-1205047,AgH36C15S3N6Cl,-0.21416062043010703
mp-1217856,TbAgH18C20(NO2)6,-0.6707254437212641
mp-1221003,NdAgH18C20(NO2)6,-0.6695475964942531
mp-555028,AgSbTe6S16(OF5)6,-1.7565987455277772
mp-555250,AgH9C7S2(OF)4,-0.8448264338117281
mp-557494,AgBTe4C2(O3F10)2,-2.091758352279411
mp-603946,AgMo4H22C8(NO5)3,-0.8299762871540881
mp-759882,AgBH8C4(N2F)4,-0.8293312986858971
mp-1205234,AgH8C3S2ClO4,-0.341993079364034
mp-559423,AgH8C5S2O2F3,-0.7263921232936511
mp-605676,AgH8C7S2O2F7,-0.9264719408024681
mp-1173558,NaMn2FeAg(PO4)3,-2.342671411141831
mp-1173587,NaMn2FeAg(PO4)3,-1.915743661391831
mp-649756,AgAsS6N4(OF3)2,-0.991447392583333
mp-690698,AgSbH2C2(NF3)2,-1.334035377797619
mp-1200006,AgH8C3S2NO3,-0.376759801446758
mp-1201812,AgH4CSN2Cl,-0.483836554541667
mp-554710,AgAsC4S8(N2F3)2,-0.7536405849652771
mp-2218118,MgAgMoH4S4N,-0.543696382222221
mp-2218200,MgAgH4WS4N,-0.495210006388888
mp-1200682,AgH18C4S4BrN8O,-0.47394312018018003
mp-1199489,CsAgH12C4S4(NO4)2,-0.746428140666307
mp-1204104,SiAgH16C7S3(OF)3,-0.5606046617401961
mp-1200476,AgH14C3S3N6ClO,-0.513272579367816
mp-1202475,AgH24C9S3N6ClO4,-0.307510830607637
mp-605018,NaAgH16C4S4(NO5)2,-0.8186666534354211
mp-1195948,AgHPbC2SN2O,-0.34811120087962905
mp-1204520,AgB10P2H40C15NCl2O3,-0.187648865407014
mp-1247858,Ag2Te,2.294528760833335
mp-1247874,Ag2Se,2.246344798368053
mp-32868,Ag2S,-0.061040652048610006
mp-38238,Ag2O,-0.20694484833333102
mp-685048,Ag2Te,-0.032259724999998005
mp-770023,Ag2Hg3,0.08231893853333001
mp-2025704,Ag2S,-0.10503542927083401
mp-556225,Ag2S,-0.11835359593749901
mp-1185840,MgAg2,-0.157108741111109
mp-1222584,Li3Ag2,-0.144521752999999
mp-571608,Yb3Ag2,-0.249414447999998
mp-621667,Eu3Ag2,-0.26552841999999804
mp-759790,Ag2Hg5,0.079788250952373
mp-2766207,Ag2S,-0.104826904270834
mp-1008601,ZrAg2,-0.045560235000001004
mp-1008617,YbAg2,-0.35908485500000104
mp-1018128,ScAg2,-0.290682248333332
mp-1018131,LuAg2,-0.351867848888886
mp-1229101,Ag2Te,-0.051721933333335
mp-19783,GdAg2,-0.25027741000000003
mp-2120,HoAg2,-0.323417429444444
mp-2618,DyAg2,-0.318310541666664
mp-30339,ErAg2,-0.325917054444441
mp-30358,TbAg2,-0.313665986666666
mp-30359,TmAg2,-0.35005619333333404
mp-999544,YAg2,-0.32084362999999805
mp-1102900,Ag2S,-0.072879224270832
mp-1592,Ag2Te,-0.09518987166666601
mp-2018369,Ag2S,-0.11816704427083301
mp-610517,Ag2S,-0.089347979270833
mp-12612,Ba3Ag2,-0.22483739799999902
mp-30357,Sr3Ag2,-0.215496192
mp-1185842,MgAg2,-0.156746121111109
mp-1229093,Ag2Hg,0.05466904416666701
mp-1391,Ag2F,-0.8383200133333321
mp-7711,Ag2O,-0.19634364944444302
mp-861945,Ag2F3,-1.200418772999999
mp-862982,Ag2Br3,-0.589244397666665
mp-864635,Ag2Cl3,-0.499390825499999
mp-568889,Ag2Se,-0.0071180663541660005
mp-2212763,Ag2S,-0.104605967604167
mp-578,GaAg2,-0.020324264444443
mp-1095694,Ag2S,-0.09316894343749901
mp-1183005,Ag2Se,-0.081074481354169
mp-2047939,Ag2Se,-0.13333801052083202
mp-568936,Ag2Se,-0.13102417302083
mp-754954,Ag2Se,-0.128311240520834
mp-1241,BaAg2,-0.28819284777777604
mp-1524385,CeAg2,-0.175438727777775
mp-309,ThAg2,-0.16585972444444003
mp-567891,NdAg2,-0.275642392499998
mp-568654,PrAg2,-0.24988673999999902
mp-1094121,MgAg2,-0.06458754194444201
mp-12735,KAg2,0.009690792916667001
mp-32884,Ag2S,-0.10776626593749901
mp-542298,Ag2F5,-1.229926874642856
mp-11872,Ag2O3,-0.184989282666666
mp-353,Ag2O,-0.31563385777777403
mp-1229090,Ag2S,-0.041446694270833
mp-1229100,Ag2Se,-0.10799439052083401
mp-30352,NaAg2,-0.078582578333334
mp-32669,Ag2S,-0.10845525260416601
mp-31053,Ag2S,-0.11352241760416601
mp-560025,Ag2S,-0.029453977604167004
mp-546190,Ag2O3,-0.355224625666665
mp-2275442,Ag2Se,-0.007605372187500001
mp-2022604,Ag2Se,-0.12122161302083101
mp-568971,Ag2Se,-0.126573511354168
mp-1046809,Ag2O3,-0.11838629966666601
mp-1095654,SiAg2,0.536599599722222
mp-1185822,MgAg2,-0.16284676444444002
mp-1185823,MgAg2,-0.144812887777777
mp-1537871,Ag2S,-0.223968058819444
mp-36216,Ag2S,-0.10611317427083301
mp-32758,Ag2Se,-0.09122650968749901
mp-32791,Ag2S,-0.024350414270832003
mp-32811,Ag2Te,-0.05321417500000301
mp-38511,Ag2S,-0.08414585760416701
mp-684798,Ag2Te,-0.059126059166662005
mp-2019952,MgAg2,-0.144161068333332
mp-754338,Ag2O,-0.296431336944442
mp-1025059,LaAg2,-0.310995305000001
mp-1071422,CeAg2,-0.171720656111109
mp-1072619,PrAg2,-0.26572057666666704
mp-1072737,NdAg2,-0.290638825833331
mp-1077322,BaAg2,-0.285019634444442
mp-1206322,CeAg2,-0.176819606111108
mp-13270,CaAg2,-0.281140916666667
mp-1436,EuAg2,-0.308942046666667
mp-30356,SrAg2,-0.279196581666665
mp-568559,YbAg2,-0.26388218
mp-1393712,Ag2S,-0.10626627927083301
mp-2899000,Ga12Ag2Te19,-0.33489540212121205
mp-660503,Ag2SO4,-1.226019764404761
mp-675033,Ga12Ag2Te19,-0.33241419060621
mp-759449,Li3Ag2F5,-2.2655628017499962
mp-759792,Ag2B8O13,-2.499107242137681
mp-851575,Ag2B8O13,-1.274197090072464
mp-4691,Ag2CO3,-1.089499118055555
mp-752734,LiAg2F4,-1.7444219463095232
mp-570256,Ag2HgI4,-0.509957182261901
mp-753881,LiAg2F6,-1.646569212129632
mp-19402,V4Ag2O11,-1.969933968137255
mp-1025377,Cd(AgI2)2,-0.6328093847619031
mp-1229122,Ag2HgI4,-0.5112391594047601
mp-1206152,Si(AgP)2,-0.109213733190475
mp-1215496,ZnCdAg2,-0.050326701249999
mp-1221932,MgZnAg2,-0.131215577083331
mp-1221985,MgCdAg2,-0.13054001708333202
mp-1222291,LiSiAg2,-0.029255206666665003
mp-978518,Sm2Ag2O5,-1.872390236481481
mp-1041785,Mg(AgO2)2,-0.685965891547618
mp-1245411,Ca5(AgN2)2,-0.6971840834280311
mp-29165,Li3Si3Ag2,-0.035405929791666
mp-10668,Yb(SiAg)2,-0.354466358999999
mp-12063,Ce(AgGe)2,-0.376001864666665
mp-1206337,Eu(AgGe)2,-0.40067043699999905
mp-1206850,Dy(SiAg)2,-0.351895480999995
mp-1207066,La(AgGe)2,-0.517549644999999
mp-1229102,Ag2PbI4,-0.558193473333332
mp-13910,Ba(AgGe)2,-0.332178010666667
mp-16237,La(SiAg)2,-0.495986191
mp-21287,Gd(SiAg)2,-0.37873109666666405
mp-22653,Eu(SiAg)2,-0.31737333766666403
mp-31203,Pr(SiAg)2,-0.40394706500000005
mp-31204,Nd(SiAg)2,-0.46864545549999803
mp-4229,Nd(AgGe)2,-0.47072440949999905
mp-4614,Tb(SiAg)2,-0.36629826200000004
mp-5564,Pr(AgGe)2,-0.425653747
mp-5605,Ce(SiAg)2,-0.363825308666665
mp-567600,Sm(SiAg)2,-0.45913238599999806
mp-7366,Sr(AgSn)2,-0.37273311200000003
mp-7878,Ca(AgGe)2,-0.32484689
mp-7879,Sr(AgGe)2,-0.359259511999999
mp-7880,Sr(SiAg)2,-0.3030315
mp-7882,Ba(AgSn)2,-0.397887482666665
mp-972680,Sm(AgGe)2,-0.398434781666666
mp-1190974,SiAg2S3,-0.45380368859374404
mp-1203252,Ag2IO5,-0.521240238541666
mp-16913,Ag2SeO3,-0.8250872030295131
mp-18068,Ag2TeO3,-0.9061985770833321
mp-2748718,Ag2SeO3,-0.5705825800520821
mp-30982,Ag2SO3,-1.051903536388888
mp-554873,Ag2B8O13,-2.510655715724636
mp-554988,Ag2Ge2O5,-1.485430639074073
mp-558469,Ag2PS3,-0.245700197167034
mp-560276,Ag2Mo2O7,-1.50653724621212
mp-574486,Ag2CN2,0.268039843333338
mp-729516,Ag2As2O7,-1.118627353939393
mp-752565,LiAg2F4,-1.74283791952381
mp-760819,LiAg2F6,-1.621900744351855
mp-762029,LiAg2F4,-1.75544126702381
mp-778019,Ag2H16O9,-1.095874616975308
mp-9635,Ag2HgS2,-0.24986713716666603
mp-1047016,Zn(AgO2)2,-0.710419560476189
mp-1047132,Ca(AgO2)2,-1.208771182619046
mp-1096838,Ba(AgO)2,-1.398802029666667
mp-754454,Cd(AgO2)2,-0.6266469290476181
mp-756146,Mg(AgO2)2,-1.058704919047618
mp-1199011,Nb4Ag2O11,-2.526391012549018
mp-1079032,Ag2IO6,-0.394565362037037
mp-23472,Re(AgCl3)2,-0.692265720833331
mp-20210,Ag2PbO2,-0.817315429666662
mp-29160,TiAg2O3,-1.8721297306944442
mp-558768,Ag2TeO4,-0.9644783249999971
mp-893071,Ag2TeO4,-0.8762305778571421
mp-753326,LiAg2F6,-1.637494289351854
mp-765566,LiAg2F6,-1.665231676388892
mp-1044625,Ca(AgO2)2,-1.084115983333333
mp-1044628,Zn(AgO2)2,-0.620421164761904
mp-1044635,Mg(AgO2)2,-0.9576266854761901
mp-1044895,Mg(AgO2)2,-0.983799122142856
mp-1044896,Zn(AgO2)2,-0.6322640673809521
mp-1044913,Ca(AgO2)2,-1.113813888095237
mp-1217505,Tm3(AgPb2)2,-0.120204215925926
mp-1225878,Er3(AgPb2)2,-0.14466476759259
mp-560717,Ag2CO3,-1.062745886666667
mp-1044610,Mg(AgO2)2,-1.011296343333332
mp-1044670,Zn(AgO2)2,-0.642879956190475
mp-1044712,Ca(AgO2)2,-1.1381924083333321
mp-37163,Ag2HgI4,-0.409869719404762
mp-984755,Nb4Ag2O11,-2.5247524522549
mp-8579,Ba(AgS)2,-1.063721045666665
mp-19405,Ni(AgO)2,-0.610143178666665
mp-1200403,Nb4Ag2O11,-2.521583730784312
mp-1203398,Ta4Ag2O11,-2.794109930745097
mp-1229177,Ag2CO3,-1.059921021666666
mp-759209,Ag2SnO3,-1.199544141805554
mp-13956,Ag2PSe3,-0.16940802690228102
mp-28195,SiAg2O3,-1.750713328055555
mp-561822,Ag2PS3,-0.23667318376426003
mp-680202,Ag2SnO3,-1.199212698333333
mp-983589,Ag2GeO3,-1.20002395347222
mp-1041822,Zn(AgO2)2,-0.611839794047618
mp-1042261,Ca(AgO2)2,-1.180316599761903
mp-1042277,Mg(AgO2)2,-1.004210024047618
mp-1042280,Zn(AgO2)2,-0.6296727461904751
mp-1183027,Ag2IO6,-0.010084794259259
mp-1192057,Ag2S2O7,-1.4055423298484842
mp-27168,Cr2Ag2O7,-1.278156058030303
mp-27966,Ag2Mo2O7,-1.5074706507575741
mp-32537,Ag2W2O7,-1.646673068484848
mp-561380,Ag2Te4O11,-1.243297442647058
mp-627414,Cr2Ag2O7,-1.285623875303029
mp-663172,Ag2SeO4,-0.8245452429538681
mp-755598,Ag2TeO4,-0.8765712135714281
mp-760273,LiAg2F5,-1.701232737239582
mp-1211042,LiSiAg2,0.022411660833334002
mp-1201221,Ag2(RhS)15,-0.46249553871872706
mp-29166,Li3Ag2Ge3,-0.147521931041666
mp-11236,MgZnAg2,-0.152613897083332
mp-1183065,AcAg2Pb,-0.31133219437500503
mp-1183121,AcInAg2,-0.32719432937499704
mp-1183196,AcYbAg2,-0.232558955625002
mp-1183552,CaPmAg2,-0.30359460937500005
mp-1183555,CaNdAg2,-0.301223394374996
mp-1183560,CaSmAg2,-0.299959087499999
mp-1183617,CaInAg2,-0.31216944499999805
mp-1183791,DyLuAg2,-0.330061112916664
mp-1183800,DyErAg2,-0.326064001249998
mp-1183853,CeEuAg2,-0.099458992083333
mp-1184080,DyTmAg2,-0.32691570874999903
mp-1184233,ErMgAg2,-0.29576571958333203
mp-1184253,ErTmAg2,-0.33566327583333405
mp-1184330,EuCdAg2,-0.252489477499999
mp-1184437,EuInAg2,-0.26344379374999904
mp-1184463,EuAg2Pb,-0.260701514583333
mp-1184477,GdCdAg2,-0.257734304999999
mp-1184490,GdMgAg2,-0.281870002083331
mp-1184543,GdLuAg2,-0.31449813000000004
mp-1184818,HoMgAg2,-0.29366708083333204
mp-1184835,HoTmAg2,-0.32925818708333204
mp-1184971,LaAg2Hg,-0.32384658645833403
mp-1185198,LaEuAg2,-0.279266988333334
mp-1185309,LiAg2Sb,-0.25240234104166903
mp-1185364,LiMgAg2,-0.22726054041666402
mp-1185425,LiSiAg2,-0.092911594166666
mp-1185500,LuMgAg2,-0.292354603749998
mp-1186102,NaAg2Sn,-0.0894175725
mp-1186295,NdCdAg2,-0.267994552708331
mp-1186310,NdEuAg2,-0.26636950812499904
mp-1186519,PrEuAg2,-0.26467344999999903
mp-1186673,PmZnAg2,-0.22587639544643
mp-1187078,SmGdAg2,-0.27406311249999804
mp-1187520,YbSmAg2,-0.326730841249999
mp-1187611,TmLuAg2,-0.35891849666666403
mp-1187657,YbCeAg2,-0.20501187874999902
mp-1187684,YbEuAg2,-0.25973569749999803
mp-1187818,YbAg2Pb,-0.216399963749999
mp-1187820,YbAg2Sn,-0.326006256250003
mp-1187833,YbGdAg2,-0.29813760125000105
mp-1187871,YTmAg2,-0.33780385
mp-1188009,ZrCdAg2,-0.101971911249999
mp-20898,DyInAg2,-0.35890147791666505
mp-22382,TbInAg2,-0.363992091666665
mp-2927,LiAg2Sn,-0.23047338291666503
mp-30340,ErInAg2,-0.351657399999997
mp-30342,HoInAg2,-0.35346281624999604
mp-30347,ScInAg2,-0.334686023749998
mp-30727,MgCdAg2,-0.14649241208333202
mp-567787,LiInAg2,-0.23021192916666403
mp-568719,SmInAg2,-0.422714734999999
mp-568917,LaInAg2,-0.40829247624999704
mp-569440,TmInAg2,-0.39610014249999903
mp-569768,NdInAg2,-0.41640398187499605
mp-569823,YInAg2,-0.412035615
mp-570683,PrInAg2,-0.35108754541666504
mp-631581,Ag2BBr,0.968938673125001
mp-672191,CeInAg2,-0.26713019249999803
mp-861625,LiZnAg2,-0.161002965416665
mp-862680,DyMgAg2,-0.29813370249999704
mp-862735,SmAg2Sn,-0.387455830833332
mp-862760,PrCdAg2,-0.259733593749997
mp-862795,CaLaAg2,-0.30696450874999903
mp-862876,PmAg2Pb,-0.32445833437500204
mp-862877,PmAg2Sn,-0.40561575187500404
mp-862889,PmCdAg2,-0.288498779375
mp-862890,AcAg2Sn,-0.356571924374996
mp-862903,PmGaAg2,-0.32887987145834
mp-862923,PmInAg2,-0.42557436187500003
mp-862932,ThInAg2,-0.218022792499997
mp-862936,PmMgAg2,-0.28877439395833304
mp-862966,PmTlAg2,-0.29126743187499904
mp-864904,HoCdAg2,-0.26668044708333
mp-865037,CeMgAg2,-0.16235838458333202
mp-865183,MgGaAg2,-0.141955728958331
mp-865192,EuAg2Sn,-0.35678689625000004
mp-865426,YbNdAg2,-0.30850556312499905
mp-865460,CaCeAg2,-0.19449022833333002
mp-865503,YCdAg2,-0.271089368333331
mp-865552,CeCdAg2,-0.156921468333331
mp-865729,CaAg2Sn,-0.34129738208333105
mp-865739,YbCdAg2,-0.292216333750001
mp-865789,YbInAg2,-0.39330738125000003
mp-865811,LaYbAg2,-0.28885911749999904
mp-865848,LuInAg2,-0.37486431666666303
mp-865873,TmCdAg2,-0.26401218333333304
mp-865896,YbPmAg2,-0.322389368124998
mp-865947,YbPrAg2,-0.292062156666666
mp-865958,AcTlAg2,-0.236608026875003
mp-865963,LiGaAg2,-0.212278126666666
mp-865977,LuCdAg2,-0.27337055916666403
mp-866060,CaPrAg2,-0.306290548749997
mp-866074,NdMgAg2,-0.28227156645833
mp-866162,YMgAg2,-0.29363824458333104
mp-867127,ScCdAg2,-0.235171138749997
mp-867225,LaCdAg2,-0.27130863708333103
mp-867256,DyCdAg2,-0.268829113749997
mp-867298,CeTlAg2,-0.161305699166667
mp-867338,AcCdAg2,-0.21414207437499702
mp-867372,ThCdAg2,-0.14431108583333002
mp-867817,LaTlAg2,-0.26703385291666704
mp-867853,SmCdAg2,-0.274145252083332
mp-867862,SmMgAg2,-0.29040380583333103
mp-867872,LiCdAg2,-0.156172906666668
mp-867876,SmTlAg2,-0.246433632916667
mp-867914,LaMgAg2,-0.27974616833333305
mp-9472,LiAg2Ge,-0.158556680416666
mp-971868,TmMgAg2,-0.293119659583333
mp-971924,DyYAg2,-0.313097208749998
mp-972420,YErAg2,-0.321682360833331
mp-972528,SmYAg2,-0.31124212499999904
mp-972945,HoErAg2,-0.32832871958333004
mp-973088,MgInAg2,-0.138226363749998
mp-973283,HoLuAg2,-0.33211146624999804
mp-974463,LaAg2Sn,-0.41562203833333206
mp-974634,LiAg2Pd,-0.19385903416666703
mp-974642,LiAg2Pb,-0.12273730166666401
mp-974782,NdTlAg2,-0.24895425354166703
mp-975801,PrTlAg2,-0.24449823708333301
mp-975892,PrMgAg2,-0.27457584749999603
mp-976326,NaInAg2,-0.08625744
mp-977378,ErCdAg2,-0.268889338333331
mp-977398,TbCdAg2,-0.27177375999999803
mp-977554,MgScAg2,-0.275858943333332
mp-978516,SmAg2Hg,-0.303810620115587
mp-978560,SmZnAg2,-0.218598347083332
mp-978907,TbTlAg2,-0.23515822833333302
mp-979425,YHoAg2,-0.31519344458333
mp-980661,YTlAg2,-0.262278455
mp-1392996,Ca(AgO2)2,-1.061411506190475
mp-1398164,Mg(AgO2)2,-0.9306097183333321
mp-1445806,Zn(AgO2)2,-0.6080478340476181
mp-19318,Ag2MoO4,-1.251052689761907
mp-753385,LiAg2F4,-1.7107788020238082
mp-1337210,Zn2Ag2O5,-0.49468155537037006
mp-676581,Ag2CO3,-1.059830794722222
mp-1104888,Zn(AgI2)2,-0.63674058190476
mp-1204999,Ag2WO4,-0.9013217899404761
mp-23558,Ag2BiO3,-0.9173112705555521
mp-637188,Ag2WO4,-1.345724475654761
mp-1215519,ZnCdAg2,0.042318900822369006
mp-1096802,Ag2GeSe3,-0.424073460060761
mp-9900,Ag2GeS3,-0.46699392263888906
mp-1247866,Ag2B8O13,-2.503243793550724
mp-1189776,Ag2TeO6,-0.5444378950000001
mp-1213175,Er7(AgTe)2,-0.643639700606057
mp-1076119,La2Ag2O5,-2.209745321481481
mp-1076848,Sm2Ag2O5,-2.162701749259259
mp-1099927,Eu2Ag2O5,-1.784846327592594
mp-1178578,Ag2CO3,-1.062045303888889
mp-558712,Ag2BiO3,-0.913087568055555
mp-1342614,Ca2Ag2O5,-1.616922309814814
mp-1371600,Mg2Ag2O5,-1.2258604081481481
mp-1047480,Ca(AgO2)2,-1.30943989440476
mp-1047547,Zn(AgO2)2,-0.6737719751190471
mp-1047695,Mg(AgO2)2,-1.072082281547618
mp-504466,Ag2WO4,-1.348469886904761
mp-1041823,Ca(AgO2)2,-1.218900316190475
mp-1377365,Mg(AgO2)2,-0.681162340833332
mp-1208960,Si2Ag2O5,-2.2252900589814812
mp-1205258,Ag2(MoO4)3,-1.118035937254902
mp-1340218,Zn(AgO2)2,-0.559180500833332
mp-1347716,Ca(AgO2)2,-1.158693862261903
mp-1367747,Mg(AgO2)2,-0.9406451472619041
mp-18501,Ba(AgTe)2,-0.952725886833328
mp-23496,CsAg2I3,-0.892772558831416
mp-540932,Mn(AgO2)2,-0.840450853037766
mp-542882,Cr(AgO2)2,-1.109907690833332
mp-752878,LiAg2F4,-1.747139878809524
mp-990091,Ag2WS4,-0.33650749843750005
mp-1047348,Zn(AgO2)2,-0.611876573333332
mp-1047395,Mg(AgO2)2,-1.001033057619047
mp-1047403,Ca(AgO2)2,-1.19571710690476
mp-28557,Ag2PdCl4,-0.5746215314285701
mp-28941,HfAg2S3,-0.929111802656251
mp-753216,LiAg2F4,-1.753624062023809
mp-867534,LiAg2F4,-1.729895437023809
mp-1197575,Ag2AsS2,-0.14634721281249402
mp-561113,Ag2BiO3,-0.9160639168055551
mp-675223,La4Ag2Se7,-1.753367848405428
mp-675420,Pr4Ag2Se7,-1.643578149723556
mp-675430,Sm4Ag2Se7,-1.638286233453523
mp-675678,Nd4Ag2Se7,-1.635485886626576