material_id,formula,formation_energy_per_atom
mp-1225180,FeCu2Sn3S8,-0.667444031071427
mp-1225851,Cu2Bi3Sb3O14,-1.6437879913636362
mp-1225853,Cu2NiSn3S8,-0.6198768074999991
mp-1226085,CoCu2Sn3S8,-0.643069158214284
mp-1226324,Cr3Cu2NiSe8,-0.5009957184821421
mp-1226326,Cr3Cu2SbS8,-0.823171307142856
mp-1226867,CdCu2Sn3S8,-0.660444638214284
mp-1235381,LiCu2(RhO2)4,-1.0754109275555561
mp-1239166,TaCr3(CuS4)2,-0.9945945276666661
mp-2215902,MgCu2(RhO2)4,-1.093536069666666
mp-2228613,MgGa4(CuO4)2,-1.8419507290000001
mp-2228644,MgV4(CuS4)2,-1.044391317666666
mp-2228671,MgCu2(NiO2)4,-1.133407475666665
mp-2232109,MgFe4(CuO4)2,-1.491191548999999
mp-2232194,MgZr4(CuS4)2,-1.497755754333332
mp-2232213,MgTi4(CuS4)2,-1.3726354465555541
mp-2232287,MgCu2(IrS2)4,-0.663459818333331
mp-2232837,MgCu2(RhS2)4,-0.746472364999999
mp-2240859,MgCr4(CuS4)2,-0.941036904999999
mp-642737,Cu2H3ClO3,-1.055623523194444
mp-778169,LiCu2(SO4)3,-1.622385530324074
mp-1239151,NbCr3(CuS4)2,-0.9730865767857141
mp-1239153,NbCr3(CuS4)2,-0.975402395
mp-1239167,TaCr3(CuS4)2,-0.997331535880951
mp-1239176,TaCr3(CuS4)2,-0.9910549023095231
mp-1197496,Cu2I4N2O,0.306169206388888
mp-1197678,VCu2HO5,-1.493371775416666
mp-1201317,LiV(CuO3)2,-1.5217139953333332
mp-734811,Rb2Cu2I4O,-0.744131125277777
mp-766274,Cu2H3NO6,-0.9935328001041671
mp-1190579,Cs2Cu2Sb2S5,-0.676598793784235
mp-1192085,Cs2Cu2Sb2Se5,-0.7595336491844631
mp-1192531,KCu2SbS3,-0.6965487631785701
mp-1194436,KCu2BiS3,-0.6907289724642851
mp-1198068,Cu2As(HO3)2,-1.167349269090909
mp-1201073,Cu2H3ClO3,-1.070173307777778
mp-1213888,Cr5Cu2(PO4)6,-2.421239869942085
mp-1214695,Ba2VCu2F12,-3.036037740588236
mp-1239160,NbCr3(CuS4)2,-0.7583766849999991
mp-1239227,TaCr3(CuS4)2,-0.764848039095237
mp-1359845,CaCu2(P2O7)2,-2.318035064693876
mp-1369672,BaCu2(PO4)2,0.534474189670329
mp-1369722,Li5Fe3(CuO5)2,-0.560598994333332
mp-1376614,Li5Cu2Ni3O10,-0.38387182483333204
mp-2217700,MgV2(CuO3)2,-1.893449865909091
mp-2224170,MgV2(CuO3)2,-2.004063396818182
mp-2227319,MgCu2(TeO4)2,-1.393406806794871
mp-2228481,MgMn3(CuO4)2,-1.7418236356280792
mp-2228757,MgMn4(CuO4)2,-1.8039643791149431
mp-2932665,Cu2Hg2SF6,-1.58618360159091
mp-554421,KCu2AsS3,-0.6722343421071421
mp-558889,Fe5Cu2(PO4)6,-2.198829411293435
mp-559415,Na2Cu2Si4O11,-2.5638947588294
mp-579463,Cu2Pb(SeO3)3,-1.217704832468751
mp-654359,BaCu2(PO4)2,-2.373385887060439
mp-669445,Cu2Bi8Pb6S19,-0.6640040223571411
mp-752890,LiCu2C2O7,-1.488198770277777
mp-753403,LiCu2(CO3)2,-1.570633899848485
mp-755996,Li5Fe3(CuO5)2,-1.6770478293333322
mp-756021,Li5Cu2Ni3O10,-1.447779704833332
mp-756830,MgCu2(SiO3)4,-2.55345584131579
mp-757404,Li2Cu2Si5O13,-2.662337041439395
mp-766023,Li2Cu2Si4O11,-2.586342292982456
mp-781767,Li3Fe2(CuO4)2,-1.508177061999999
mp-886266,Li5Fe3(CuO5)2,1.169353338666667
mp-887906,Li5Cu2Ni3O10,1.131331882666667
mp-652548,MgMn3(CuO4)2,-1.825547182235222
mp-1235296,LiCu2(RhO2)4,-0.8221861595555551
mp-2220780,MgCu2(RhO2)4,-0.6235637349999991
mp-2228612,MgGa4(CuO4)2,-1.329057908333332
mp-2228675,MgCu2(NiO2)4,-0.6986435763333321
mp-2232181,MgTi4(CuS4)2,-1.139054249888888
mp-2232196,MgZr4(CuS4)2,-1.237997251666666
mp-2232276,MgCu2(IrS2)4,-0.37899810033333103
mp-2232976,MgCu2(RhS2)4,-0.491576162333332
mp-22413,FeCu2(CN)6,0.541687693333332
mp-6820,Cu2Hg2SF6,-1.569010677045455
mp-2224211,MgCu2GeS4,-0.6908516649999991
mp-1157205,Zn3Cu2(SiO4)3,-2.048300552875
mp-1163936,Ca3Cu2(SiO4)3,-2.723545364874999
mp-1214197,Ca3V3(CuO6)2,-2.5131201317499983
mp-1265011,Mg3Cu2(SiO4)3,-2.509870518124999
mp-1325923,Zn3Cu2(GeO4)3,-1.5690639532500001
mp-1329647,Ca3Cu2(GeO4)3,-2.239515165375
mp-1329932,Mg3Cu2(GeO4)3,-2.0157847595
mp-1225905,Cu2NiTeO6,-1.186002556916667
mp-1226159,CoCu2TeO6,-1.196380516916666
mp-1227911,BaPrCu2O5,-2.169466071111111
mp-2217873,MgCu2(GeO3)2,-1.541539852272726
mp-2218067,MgCu2(GeO3)2,-1.538925540454545
mp-1221925,Mn2Cu2AsP,-0.06692389550081901
mp-1227889,Cu2Bi5Pb5S14,-0.6249618738461531
mp-1239129,NbCr3(CuS4)2,-0.7746962767857141
mp-1239130,NbCr3(CuS4)2,-0.9151727853571431
mp-1239135,TaCr3(CuS4)2,-0.925924755523809
mp-1239148,TaCr3(CuS4)2,-0.7943366083809521
mp-1239159,NbCr3(CuS4)2,-0.7775837724999991
mp-1239229,TaCr3(CuS4)2,-0.7851875055238091
mp-1239234,TaCr3(CuS4)2,-0.7441214476666661
mp-1330228,CaV4(CuO7)2,-2.043752558571429
mp-2217140,MgCu2(PdO2)2,-0.921184330555554
mp-2218345,MgCu2(WO4)2,-1.850107338076923
mp-2218547,MgCu2(WO4)2,-1.895378828846153
mp-2230737,MgTa4(CuO6)2,-2.763779763385964
mp-1042278,PrZn(CuO3)2,-1.6533039796666662
mp-1044441,PrMg(CuO3)2,-1.9283035776666662
mp-1044464,CaPr(CuO3)2,-2.080386874166666
mp-1104843,ZnCu2SiSe4,-0.6327559142968741
mp-1105189,Cu2AgPS4,-0.326520030528271
mp-1105527,ZnCu2GeS4,-0.695724522499999
mp-1106310,Cu2SiHgS4,-0.633011808437499
mp-1188558,FeCu2SiS4,-0.6649741893750001
mp-1188827,MgCu2SiSe4,-0.7625362030468741
mp-1189056,MgCu2GeS4,-0.843534197499999
mp-1189879,CdCu2SiSe4,-0.6097984155468741
mp-1190224,ZnCu2SnS4,-0.6978175106249991
mp-12023,MnCu2SiS4,-0.756074068491377
mp-1205334,MgCu2SiS4,-0.952865096249999
mp-1210824,MnCu2SiSe4,-0.5681584196632531
mp-1212937,Cu2SiHgSe4,-0.5126903133593751
mp-1213845,CoCu2GeSe4,-0.426308345546875
mp-1239121,NbCr3(CuS4)2,-0.581125513571428
mp-1239138,TaCr3(CuS4)2,-0.7898880987380941
mp-1239139,TaCr3(CuS4)2,-0.6384513658809511
mp-1239140,TaCr3(CuS4)2,-0.7960142094523801
mp-1239155,NbCr3(CuS4)2,-0.7741163199999991
mp-1239214,NbCr3(CuS4)2,-0.7798335175000001
mp-1239215,TaCr3(CuS4)2,-0.782264504809523
mp-1239251,TaCr3(CuS4)2,-0.7166740583809511
mp-1239268,NbCr3(CuS4)2,-0.7776919753571421
mp-13982,CdCu2GeS4,-0.6501249718749991
mp-20474,MnCu2GeS4,-0.650443175991378
mp-557574,Cu2HgGeS4,-0.5297745340624991
mp-6449,CdCu2SiS4,-0.7558171031249981
mp-760676,LiCu2PO4,-1.836330507872023
mp-781825,Li9Cu2(HO2)4,-1.674767628260869
mp-977414,ZnCu2SiS4,-0.8001549412499991
mp-1350317,BaCa3(CuN2)2,-0.44618608800000004
mp-505321,CsNb(CuTe2)2,-0.702966825165229
mp-505322,CsTa(CuTe2)2,-0.6819976182693961
mp-617442,RbTa(CuTe2)2,-0.6625830808124991
mp-1218244,SrLa3(CuO4)2,-2.8162802353571443
mp-1218417,SrCa(CuO2)2,-2.083795151249999
mp-2217251,Na2Mg(CuO2)2,-1.3265479441954011
mp-2218832,MgCu2(SeO4)2,-1.210232961514422
mp-2222920,Sr2Mg(CuO2)2,-1.850841980555555
mp-1181938,Cu2H3NO6,-0.8553647590624991
mp-1192779,Cu2H4CO5,-1.079593268333334
mp-1216243,Zn3Cu2(CO6)2,-1.202756763421052
mp-1226171,Cu2H3NO5,-0.9338352903409091
mp-1239154,NbCr3(CuS4)2,-0.7227322087499991
mp-1239158,TaCr3(CuS4)2,-0.767142573738094
mp-1354988,CaCu2(As2O7)2,-1.598875247142857
mp-1360682,CaCu2(GeO3)4,-1.8395222199999992
mp-696795,Cu2H3NO6,-0.8189037340625
mp-780703,LiCu2PO4,-1.8415276678720232
mp-849405,Li4Cu2Ni5O12,-1.318829488188406
mp-849474,Li2Mn5(CuO6)2,-1.737028891729611
mp-849516,Li4Mn5(CuO6)2,-1.847707208173413
mp-10091,KV(CuSe2)2,-0.929177158953124
mp-1106233,KNb(CuS2)2,-1.082700341531248
mp-1189564,NaNb(CuS2)2,-0.9807923776724121
mp-11925,RbTa(CuSe2)2,-0.986762766776041
mp-1205413,RbTa(CuTe2)2,-0.6625791876875
mp-12364,BaCu2SnSe4,-0.9756099205468741
mp-15998,RbV(CuS2)2,-1.084312144687499
mp-16179,SrCu2GeSe4,-0.9285219524218741
mp-555984,EuCu2SnS4,-1.007623979374999
mp-6013,KTa(CuSe2)2,-0.968526246744791
mp-6181,NaNb(CuS2)2,-0.9970451157974121
mp-6376,KV(CuS2)2,-1.068431111531248
mp-6599,KNb(CuSe2)2,-0.9648636458281241
mp-9815,TaTl(CuS2)2,-0.8950080144583331
mp-1216636,Tl2Cu2SnTe4,-0.365107339814815
mp-2224182,MgCu2GeS4,-0.7149766524999991
mp-2227567,MgCu2WS4,-0.6342807206249981
mp-2232150,MgCu2(BiO2)4,-1.122362033
mp-1226244,Cr6Cd(CuO6)2,-1.993126174285715
mp-1235155,LiCu2(RhO2)4,-1.065839763555555
mp-2215879,MgCu2(RhO2)4,-1.075922592333332
mp-2219394,MgV2(CuO4)2,-1.897692474230769
mp-2228616,MgCu2(NiO2)4,-1.056711550999999
mp-2228646,MgGa4(CuO4)2,-1.7213599169999991
mp-2228676,MgV4(CuS4)2,-0.9996926103333331
mp-2228755,MgMn4(CuO4)2,-1.667603577781609
mp-2232160,MgTi4(CuS4)2,-1.307615565222221
mp-2232223,MgFe4(CuO4)2,-1.465647346999998
mp-2232228,MgCu2(IrS2)4,-0.623648711666665
mp-2232359,MgMn4(CuO4)2,-1.663586552448276
mp-2232510,MgFe4(CuO4)2,-1.2387451909999991
mp-2233262,MgCu2(RhS2)4,-0.7006014016666661
mp-2240166,MgCu2(O2F)2,-1.221664088333332
mp-1043304,Sr2FeCu2O7,-1.6980532924999991
mp-1043413,Sr2CrCu2O7,-1.8678046883333321
mp-1044112,Sr2Cu2NiO7,-1.51091968375
mp-1046176,Sr2Cu2SbO7,-1.7765546704166661
mp-1046189,Sr2TiCu2O7,-2.256074350277777
mp-1046197,Sr2Cu2TeO7,-1.720335563055555
mp-1046211,Sr2Cu2SnO7,-1.8411066604166662
mp-1046272,Sr2Cu2BiO7,-1.697022231666666
mp-1048239,Sr2Y2Cu2O7,-2.7066159546153843
mp-1335753,Sr2CoCu2O7,-1.644251988749999
mp-1345328,Sr2TaCu2O7,-2.176718147694444
mp-2210768,NaMgCu2O3,-1.43591433591133
mp-2224190,SrMgCu2O3,-1.809380977142857
mp-1178014,Li2Cu2Si8O19,-2.791311642311828
mp-1195044,Cu2H18N7F2,-0.441806997844827
mp-1218715,Sr4Cu2Bi4O13,-1.9518604093478271
mp-1239157,NbCr3(CuS4)2,-0.9718353978571421
mp-1239219,TaCr3(CuS4)2,-0.9944901283809511
mp-1368855,CaCu2(GeO3)4,-1.8524254405263152
mp-2217071,MgFe2(CuS2)2,-0.5550900283333331
mp-2217130,MgFe2(CuS2)2,-0.5785842883333331
mp-2218125,MgCu2P2O7,-2.161007199940476
mp-2218927,MgCu2(PO4)2,-2.183131537252746
mp-2226846,Nd4Mg(CuO4)2,-2.8459468723333323
mp-2232473,MgCr4(CuO4)2,-1.966747362333333
mp-2232479,MgCo4(CuO4)2,-1.235181347666666
mp-754449,Li5Cu2Ni5O12,-1.422397356111111
mp-756860,LiMn5(CuO6)2,-1.6512989086494252
mp-757148,Li5Fe5(CuO6)2,-1.727992281111111
mp-764915,Li5Co5(CuO6)2,-1.503100148194445
mp-849464,Li3Mn5(CuO6)2,-1.7989393431661451
mp-559757,Ba3Cu2(ClO2)2,-2.247765554545455
mp-582585,SrCu2(PO4)2,-2.368629581002746
mp-582882,Cu2P2PbO8,-1.9978886910989
mp-570817,Cu2P8Se3I2,-0.27896917077827305
mp-683899,Cu2P8Se3Br2,-0.340539795611605
mp-510654,Cu2PHO5,-1.657777892599206
mp-555113,Rb3Cu2(BiS2)5,-0.835969439874999
mp-556522,K3Cu2(BiS2)5,-0.8383718468374891
mp-669419,Cs3Cu2(BiS2)5,-0.679966887822925
mp-1176750,LiCu2PO4,-1.842886808497024
mp-1239147,NbCr3(CuS4)2,-0.892030986428571
mp-1239223,TaCr3(CuS4)2,-0.9012030283809521
mp-2210740,NaMgCu2O3,-1.419617734482759
mp-2217244,MgTl2(CuO2)2,-1.148267839074075
mp-2217358,Na4Mg(CuO2)2,-1.300132813683385
mp-2217396,Sr2Mg(CuO2)2,-1.9511320838888881
mp-2223644,K2Mg(CuO2)2,-1.37293770661111
mp-2226406,MgCu2(O2F)2,-1.178318997222221
mp-2230478,MgCu2(IO3)4,-0.915911837105263
mp-2230637,MgCu2(IO3)4,-0.9640833744736841
mp-2240024,MgCu2(O2F)2,-1.264822741666666
mp-1178040,Li2Cr3(CuO6)2,-1.622792000745614
mp-769636,Li2Cu2(SO4)3,-1.771559214298244
mp-1196438,CsCu2AsS3,-0.693283755843595
mp-566937,TlCu2P2O7,-1.956860334489087
mp-851105,Li2Cu2(SO4)3,-1.765342890877192
mp-1044945,MgCu2P2O9,-2.038802750663266
mp-1049243,ZnCu2P2O9,-1.8204438328061232
mp-1182566,Cu2C4NCl3,1.05248419575
mp-1204931,FeCu2As3O11,-1.120662936617647
mp-22407,BaCu2Si2O7,-2.519344026666667
mp-510547,Cu2H3ClO3,-1.062027649305555
mp-542101,BaCu2Ge2O7,-1.968493761249999
mp-558794,Cu2BH5O6,-1.420851128779762
mp-617247,Cu2BiPO6,-1.753271382964285
mp-652196,Cu2Bi4Pb2S9,-0.6148252997058811
mp-669361,Cu2BiAsO6,-1.3958909400000001
mp-680461,Cu2Bi8Pb2S15,-0.6253703775
mp-762049,LiCu2PO4,-1.839107542559523
mp-765091,VCu2HO5,-1.487665406249999
mp-1214271,BaZn2Cu2As3,-0.3992946553125
mp-757870,Li2Cu2(Si2O5)3,-2.686758524166667
mp-1078922,Cu2SiNiS4,-0.40297484124999905
mp-2210763,NaMgCu2O3,-1.135451057339901
mp-2225330,SrMgCu2O3,-1.096742988571429
mp-1217249,UCu2(SiNi4)2,-0.27019516692307505
mp-1228084,Ba4Sc2Cu2O9,-2.80926711264706
mp-1189702,ZnCu2SiS4,-0.8017754718749991
mp-1226932,CdCu2GeSe4,-0.556639146171874
mp-1239145,NbCr3(CuS4)2,-0.7236873560714281
mp-1239161,TaCr3(CuS4)2,-0.7476008471309521
mp-585339,LiCu2P5O16,-2.221381058189483
mp-758179,LiCu2PO4,-1.8424327391220232
mp-760165,LiCu2(PO3)5,-2.286647822458591
mp-1220123,NdMn5(CuO6)2,-1.9759021508577592
mp-2240714,Sr2Mg(CuO2)2,-2.072116464999999
mp-18006,Rb2Cu2SnS4,-0.882589302777776
mp-18240,Tl2Cu2SnS4,-0.532658789074075
mp-1225111,FeCu2SbO6,-1.412616166249999
mp-1043112,Sr2Cu2MoO7,-1.8118675345833322
mp-1043567,Sr2Cu2WO7,-1.814792434999999
mp-1043859,Sr2VCu2O7,-2.013763190833332
mp-1215300,ZrMn(CuS2)2,-0.8801543284913791
mp-1215404,ZrMn(CuSe2)2,-0.724692294663253
mp-1216034,ZnIn2Cu2S5,-0.7680364830833321
mp-1218400,SrCa3(CuO3)2,-2.490730375833333
mp-1218473,Sr3Ca(CuO3)2,-2.445590899166667
mp-1223168,La3Nd(CuO4)2,-2.962404432321428
mp-1228311,Ba4Tl4Cu2O11,-1.737264578968254
mp-1228812,CsTi2(CuTe4)2,-0.771644519973474
mp-1377393,Sr9Zn2(CuO7)2,-2.339837582592593
mp-2217328,Na4Mg(CuO2)2,-1.382271386410657
mp-2217459,Na2Mg(CuO2)2,-1.535036205306512
mp-2217670,Na4Mg(CuO2)2,-1.292728597319748
mp-2218301,MgCu2(TeO4)2,-1.424943169871794
mp-2219225,MgCu2(SeO4)2,-1.151924501514422
mp-2222930,Na2Mg(CuO2)2,-1.5252190197509572
mp-2223318,Na3Mg(CuO2)2,-1.464053397913792
mp-2227086,MgCu2GeS4,-0.843794971249999
mp-2227351,MgCu2(O2F)2,-1.2716091183333331
mp-2227731,MgCu2WS4,-0.639104993124998
mp-2228725,MgMn4(CuO4)2,-1.7294926737816092
mp-2232148,MgFe4(CuO4)2,-1.347278108999999
mp-2232509,MgCo4(CuO4)2,-1.102144676333334
mp-2240739,Na3Mg(CuO2)2,-1.403793567913792
mp-770859,Mn3Co3(CuO8)2,-1.173627785574712
mp-2228333,MgTa4(CuO6)2,-2.656125409175439
mp-2230547,MgCu2(SbO3)4,-1.57011979868421
mp-542807,Cu2Te2Br2O5,-1.151411038484848
mp-581276,Cu2Te2Cl2O5,-1.228205741666667
mp-1078420,ZnCu2GeTe4,-0.399520471458332
mp-1078918,ZnCu2SnSe4,-0.628756083046875
mp-1079541,ZnCu2SnS4,-0.707285174374999
mp-1221609,MnGa(CuSe2)2,-0.6350499368507531
mp-1224050,InGa(CuTe2)2,-0.35013385625000004
mp-1224147,InGa(CuSe2)2,-0.56034897703125
mp-1224565,InFe(CuTe2)2,-0.31466144916666605
mp-1225065,FeCu2GeS4,-0.5788137331249991
mp-1225842,Cu2NiSnS4,-0.563841854374999
mp-1225885,Cu2NiSnSe4,-0.48452659554687405
mp-1226052,CoCu2GeSe4,-0.445527343046874
mp-1226100,CoCu2SnSe4,-0.468064676796874
mp-1232332,ZnCu2SiSe4,-0.6375325786718741
mp-2226140,MgCu2WS4,-0.6019013131249981
mp-759287,LiCu2PO4,-1.842320058497024
mp-1176814,LiCu2(C2O5)2,-1.551207393725491
mp-1228042,Ca2Eu(CuO3)2,-2.322864548181818
mp-558055,In2Cu2SiS6,-0.604181742443175
mp-880318,LiCu2C2O7,-1.448990675694444
mp-1209940,NaSmCu2F8,-2.907717778864942
mp-1210068,NaErCu2F8,-2.9224848917816093
mp-1210079,NaGdCu2F8,-2.902056730948276
mp-1210237,NaEuCu2F8,-2.7207479163649433
mp-1223089,La3Nd(CuO4)2,-3.056785756607141
mp-624928,KEu(CuTe2)2,-0.8844601023645831
mp-1076871,La7SmCo6(CuO10)2,-2.310536186666667
mp-1076898,BaSr3Co2(CuO5)2,-1.9723790218055561
mp-1173233,Sr3LaCu2(BiO3)4,-1.872075015227274
mp-1173259,Sr2NdGaCu2O7,-2.461809071923077
mp-1215670,ZnCu2SnSe3S,-0.6450904649414061
mp-1215792,ZnCu2SnSeS3,-0.682614896230468
mp-1225986,Cu2Ag5Se4NO15,-0.90350944621142
mp-1227699,Ca2LaGaCu2O7,-2.4876962432692302
mp-1233808,MgMn4Cu2(PO4)6,-2.286981357150845
mp-1234087,MgMn4Cu2(PO4)6,-2.325029689853548
mp-1235434,LiCr2Cu2(WO4)4,-1.947662006933333
mp-1236608,LiCr2Cu2(WO4)4,-1.964028504933332
mp-2228990,Rb4MgV2(CuS4)2,-1.176345026176469
mp-2229000,K4MgNb2(CuS4)2,-1.133605603764705
mp-2229176,K4MgV2(CuS4)2,-1.183316546705881
mp-2229309,Rb4MgNb2(CuS4)2,-1.1413276873529399
mp-2230425,MgCu2H4(SeO5)2,-1.225220568667764
mp-2233570,MgNb2Cu2(O3F)2,-2.4821733950000002
mp-2241479,MgMn2V2(CuO4)2,-1.9096007207241381
mp-40573,FeCu2H21(O5F4)2,-1.5043515675297612
mp-683320,Sr2DyGaCu2O7,-1.1862249568589731
mp-694971,LiTi2NbCu2O9,-2.537920631333334
mp-706245,Ca3La5Mn6(CuO12)2,-2.688695298814655
mp-726391,ZrCrCu2(PO4)3,-2.510842703101504
mp-756425,Li4Ti3Cr3(CuO8)2,-2.362457721904761
mp-757922,Li4Co3Cu2Sb3O16,-1.656732471547619
mp-764926,Li5Co2Cu2(PO4)4,-2.283767983628899
mp-775072,Li4Mn3Cu2Sb3O16,-1.8459043095402299
mp-776176,Li4Ti3V3(CuO8)2,-2.523532372619047
mp-776209,Li5Fe3Cu2(PO4)6,-2.306376931613093
mp-777701,Li5Mn3Cu2(PO4)6,-2.362219941207923
mp-778230,Li4V3Cr3(CuO8)2,-2.096511060476191
mp-938535,LiTi2NbCu2O9,-0.5505633885000001
mp-1228061,Ba4Cu2IBrO4,-2.293949675
mp-1218164,SrLaNd(CuO3)2,-2.618122335681818
mp-1228366,Ba2Tl2Cu2HgO8,-1.497671728611112
mp-1182601,Ca2Cu2Si3(HO3)4,-2.323958644347825
mp-1213538,Cu2H6C3(BrN3)2,-0.379387794342105
mp-2911535,Cu2H6C3(BrN3)2,-0.26022969789473605
mp-696360,Ca2Cu2Si3(HO3)4,-2.244869817608696
mp-2239950,MgFeCu2SnS4,-0.5308421466666661
mp-2239961,MgFeCu2SnS4,-0.478142487777776
mp-2241474,Sr2MgCu2(BiO4)2,-1.5582770570000002
mp-1173254,Sr2SmTa(CuO4)2,-2.787253500166666
mp-1173255,Sr2NdTa(CuO4)2,-2.775255376059524
mp-1173256,Sr2YCoCu2O7,-2.280707539615384
mp-1173261,Sr2NdNb(CuO4)2,-2.689857955178571
mp-1178150,KCu2H2(SO5)2,-1.572910172632352
mp-1200668,Cu2Si2Pb7(S2O13)2,-1.9028966760975612
mp-1208134,TlCu2H(SeO5)2,-1.021212408704427
mp-1209301,RbCu2H3(SeO5)2,-1.238161301996528
mp-1210157,NaCu2H3(SO5)2,-1.572224192229406
mp-1213178,Cu2AgH(SeO5)2,-0.9163641467252611
mp-1213188,Cu2AgH(SO5)2,-1.300769066119791
mp-2218795,Na3MgCu2SbO6,-1.746767528395225
mp-2232576,MgV2Cd2(CuO4)2,-1.6407134970000001
mp-558231,Ba3Ho2Cu2PtO10,-2.514514268333333
mp-642811,KCu2H2(SeO5)2,-1.076219490261029
mp-6829,Ba3Y2Cu2PtO10,-2.4939990572222213
mp-722515,NaCu2H2(SeO5)2,-1.190468618150989
mp-8837,Ba3Er2Cu2PtO10,-2.519987186666666
mp-10062,Ba2NdNb(CuO4)2,-2.675009604821428
mp-1104173,Sr2GdCu2RuO8,-2.24115381142857
mp-1208525,Sr2YCu2PbO7,-2.269653318846153
mp-1208772,Sr2NdTa(CuO4)2,-2.75993135677381
mp-1208792,Sr2PrTlCu2O7,-2.202962546923077
mp-1208803,Sr2LaCu2HgO6,-2.164722899791667
mp-1208877,Sr2EuTa(CuO4)2,-2.653560316595238
mp-1209074,Sr2GdCu2HgO7,-2.134018062884615
mp-1209256,Sr2GdTa(CuO4)2,-2.770659741238094
mp-1214583,Ba2YCu2HgO7,-2.085000520576922
mp-1214587,Ba2NdCu2HgO7,-2.061667085
mp-1214615,Ba2Sm2Ti2Cu2O11,-3.026394965877192
mp-1214655,Ba2La2Ti2Cu2O11,-3.058660346403508
mp-1214663,Ba2LaCu2HgO7,-2.075272398653846
mp-1214696,Ba2DyCu2HgO7,-2.096556180705128
mp-1214738,Ba2EuCu2HgO7,-1.9467180563461541
mp-1214867,Ba2GdCu2HgO7,-2.077383540576923
mp-1232340,Ba2CaCu2MoO8,-2.276012237142858
mp-20087,Sr2SmTa(CuO4)2,-2.770814861595238
mp-20824,Sr2CaTlCu2O7,-2.044442910641026
mp-505223,Ba2Tb2Ti2Cu2O11,-3.028400453947367
mp-557043,Ba2Nd2Ti2Cu2O11,-3.022151842982454
mp-615682,Ba2LaTa(CuO4)2,-2.7770781808809533
mp-616471,Ba2Eu2Ti2Cu2O11,-2.8539367442982453
mp-632802,Ba2CaTlCu2O7,-1.9780873029487172
mp-654374,Ba2YTlCu2O7,-2.21219812525641
mp-6879,Ba2CaCu2HgO6,-2.014209259375
mp-9117,Sr2YTlCu2O7,-2.240519861410257
mp-1194240,Sr2GdCu2RuO8,-2.268234198214285
mp-1048428,Sr3Cr2Cu2S2O5,-2.151978576428571
mp-1078706,Ba2CoCu2(SO)2,-1.486311756111111
mp-1208746,Sr2TbCu2(BiO4)2,-2.157861986444445
mp-1208752,Sr2PrCu2(BiO4)2,-2.115389967444444
mp-1208753,Sr2YCu2(BiO4)2,-2.149015809333334
mp-1208757,Sr2TmCu2(BiO4)2,-2.165499776000001
mp-1208767,Sr2SmCu2(BiO4)2,-2.140012971666666
mp-1208768,Sr2NdCu2(BiO4)2,-2.125919455166666
mp-1208811,Sr2LuCu2(BiO4)2,-2.157096948444445
mp-1208840,Sr2HoCu2(BiO4)2,-2.159670824333333
mp-1208859,Sr2DyCu2(BiO4)2,-2.160055370111111
mp-1208931,Sr2ErCu2(BiO4)2,-2.164430833333333
mp-1208972,Sr2EuCu2(BiO4)2,-2.054012707666666
mp-1214673,Ba2La2TlCu2O9,-2.410498034270834
mp-1214767,Ba2GdCu2(HgO4)2,-1.903341839666667
mp-1218439,Sr4TlCu2BiO10,-2.057349785740741
mp-1275541,Sr3Mn2Cu2S2O5,-2.077905366133005
mp-1400076,Sr3Co2Cu2S2O5,-1.773583601428571
mp-15900,Sr3Sc2Cu2S2O5,-2.722424895
mp-2232309,Sr2MgCu2(BiO4)2,-1.921216026999999
mp-505310,Sr3Fe2Cu2S2O5,-1.941332755714286
mp-505611,Sr2Cu2Ni(SO)2,-1.512156987222222
mp-550306,YCu2Bi2(SeO2)2,-1.733456438607945
mp-551219,Sr2MnCu2(SO)2,-1.742359545881226
mp-555855,Sr2CaCu2(BiO4)2,-2.033430670666667
mp-557020,Sr3Fe2Cu2Se2O5,-1.9263293628348221
mp-557447,Ba2Eu3Mn2(CuO6)2,-2.4517698205172422
mp-561182,Ba4Tl2Cu2HgO10,-1.8576053089035098
mp-573069,Ba2CaTl2(CuO4)2,-1.866609876444444
mp-6885,Ba2CaTl2(CuO4)2,-1.882224774444445
mp-9453,Sr2ZnCu2(SO)2,-1.7072806950000001
mp-1196007,Cu2BiTeSO10,-1.287158923444444
mp-1198333,Na5Cu2H14S4O19,-1.535854001804466
mp-1198442,Cu2PC2SO13,-0.5576658040601501
mp-1200181,Cu2As9P3S9I2,-0.387808171457142
mp-1201576,ZnCu2PH7O9,-1.5013039351696431
mp-1204474,ZnCu2H4(SO4)2,-1.298199863529411
mp-2912168,Cu2GeP2(H5O7)2,-1.641063665406403
mp-555729,Cu2H10C6S3N4,-0.149813585699999
mp-555814,Sr2Cu2Te(BrO3)2,-1.893765146666666
mp-604273,Cu2GeP2(H5O7)2,-1.64205490591954
mp-697660,Cu2H6C3N4O,-0.26380097796875