material_id,formula,formation_energy_per_atom
mp-1234742,MgAl2H4Pb2(O2F3)2,-2.394510717894736
mp-1234876,CaAl2H4Pb2(O2F3)2,-2.479462061315789
mp-1235207,LiAl2H4Pb2(O2F3)2,-2.412637536754385
mp-1235551,LiAl2H4Pb2(O2F3)2,-2.403326968859648
mp-1235701,LiAl2H4Pb2(O2F3)2,-2.427274929385964
mp-1236388,LiAl2H4Pb2(O2F3)2,-2.4359433609649113
mp-1236447,LiAl2H4Pb2(O2F3)2,-2.431334254122806
mp-2712533,Na3Mg2Al2PS5O24,-2.427825436746328
mp-2712681,Na3Al2Zn2PS5O24,-2.242401183232815
mp-2712862,Na7Ca2Al2P5SO24,-2.7831730329358413
mp-2712919,Na3Ta2Al2SiP5O24,-2.9795697709554663
mp-2712955,Na3Nb2Al2SiP5O24,-2.909785035243754
mp-2712979,Na6Ta6Al2Si9(SO16)3,-2.931491088487963
mp-2712990,Na6Nb6Al2Si9(SO16)3,-2.8369369191996743
mp-2713167,Na4Mg2Al2SiS5O24,-2.418795090079401
mp-2713200,Na4Al2Zn2SiS5O24,-2.24466184543028
mp-2713318,Na4Al2Si3Ge2(SO8)3,-2.433893236351331
mp-2713417,Na2Nb2Al2Si3(SO8)3,-2.6459614038497783
mp-2713422,Na4Ca2Al2SiS5O24,-2.463852035079401
mp-2713561,Na3Ca2Al2PS5O24,-2.478080111431013
mp-2713572,Na4Hf2Al2Si3(SO8)3,-2.779023456175893
mp-2713576,Na4Zr2Al2Si3(SO8)3,-2.738173914246068
mp-2713582,Na4Ti2Al2Si3(SO8)3,-2.699517244421507
mp-2713666,Na4Al2Si3Sn2(SO8)3,-2.443823953193437
mp-2713775,Na3Y2Al2P3(SO8)3,-2.7410575146099063
mp-2713776,Na3Sc2Al2P3(SO8)3,-2.736424535510807
mp-2713778,Na6Ta2Al2Si5SO24,-2.904108304344397
mp-2713852,Na3Al2Ga2P3(SO8)3,-2.460650565195491
mp-2713862,Na3La2Al2P3(SO8)3,-2.717427881907204
mp-2713952,Na6Nb2Al2Si5SO24,-2.842384669644397
mp-2713966,Na3Al2In2P3(SO8)3,-2.437389816051347
mp-2713976,Na2Ta2Al2Si3(SO8)3,-2.708702079997925
mp-2714049,NaAl2Ga2PS5O24,-2.2478020157673
mp-2714054,Na5Nb2Al2Si3(PO8)3,-2.908507907542525
mp-2714056,Na5Ta2Al2Si3(PO8)3,-2.970745251080987
mp-2714064,NaY2Al2PS5O24,-2.548634033719682
mp-2714083,NaAl2In2PS5O24,-2.219969885338729
mp-2714089,NaLa2Al2PS5O24,-2.533015540862539
mp-2714187,NaSc2Al2PS5O24,-2.535024391624443
mp-2714272,Na5Zr2Al2SiP5O24,-2.984453122225064
mp-2714376,Na2La2Al2SiS5O24,-2.53558704519237
mp-2714380,Na2Sc2Al2SiS5O24,-2.5378605845442213
mp-2714444,Na7Nb2Al2Si5PO24,-2.9108816720560498
mp-2714547,Na2Y2Al2SiS5O24,-2.5370472564886652
mp-2714575,Na2Al2Ga2SiS5O24,-2.262865076072
mp-2714583,Na7Ta2Al2Si5PO24,-2.974496529243041
mp-2714623,Na7Ti2Al2Si3(PO8)3,-2.936914676103668
mp-2714625,Na5Mg2Al2P3(SO8)3,-2.570383230939961
mp-2714634,Na7Al2Si3Ge2(PO8)3,-2.7059328729329373
mp-2714721,Na5Ca2Al2P3(SO8)3,-2.583369628803208
mp-2714794,Na7Al2Si3Sn2(PO8)3,-2.7223951978922862
mp-2714900,Na5Al2Zn2P3(SO8)3,-2.4002526802562
mp-2714922,Na5Al2In2P5SO24,-2.600872747972928
mp-2714994,Na7Zr2Al2Si3(PO8)3,-2.983436491713425
mp-2715007,Na8Ca2Al2Si3(SO8)3,-2.575344722623838
mp-2715048,Na5Al2Ga2P5SO24,-2.6337114610925862
mp-2715073,Na5La2Al2P5SO24,-2.854594246263526
mp-2715095,Na8Al2Zn2Si3(SO8)3,-2.4086417851635202
mp-2715125,Na5Y2Al2P5SO24,-2.874139180964381
mp-2715171,Na7Hf2Al2Si3(PO8)3,-3.020073020981718
mp-2715191,Na5Sc2Al2P5SO24,-2.883289827032757
mp-2715201,Na8Mg2Al2Si3(SO8)3,-2.551331766036535
mp-2715525,Na7Al2Ga2SiP5O24,-2.718231678565923
mp-2715529,Na8Al2Si5Sn2SO24,-2.6493475579016152
mp-2715540,Na2Al2In2SiS5O24,-2.228291709173851
mp-2715610,Na7Sc2Al2SiP5O24,-2.955078727224458
mp-2715619,Na8Al2Si5Ge2SO24,-2.64171795282225
mp-2715626,Na7Y2Al2SiP5O24,-2.953465256411451
mp-2715632,Na7La2Al2SiP5O24,-2.9311972060862472
mp-2715665,Na8Ti2Al2Si5SO24,-2.861995103774632
mp-2715687,Na7Al2In2SiP5O24,-2.693802567956165
mp-2715719,Na8Hf2Al2Si5SO24,-2.9366391177428843
mp-2715742,Na8Zr2Al2Si5SO24,-2.897844424250822
mp-2715801,Na2Nb6Al2Si7S5O48,-2.7267289488608393
mp-2715813,Na2Ta6Al2Si7S5O48,-2.827320890251314
mp-2715827,Na3Al2Ge2P5SO24,-2.59501754914015
mp-2715843,Na3Al2Sn2P5SO24,-2.620841201122132
mp-2715845,Na7Al2Zn2P5SO24,-2.5838320873260843
mp-2715867,Na3Hf2Al2P5SO24,-2.966828769320331
mp-2715904,Na5Hf2Al2SiP5O24,-3.026327965131047
mp-2715909,Na7Mg2Al2P5SO24,-2.743137924480557
mp-2715959,Na3Ti2Al2P5SO24,-2.8651805751761863
mp-2715989,Na3Zr2Al2P5SO24,-2.925430304905917
mp-2716034,Na5Al2SiSn2P5O24,-2.70564433837891
mp-2716044,Na5Ti2Al2SiP5O24,-2.9386265731652363
mp-2716105,Na5Al2SiGe2P5O24,-2.688496758977201
mp-2716129,Na6Al2In2Si3(SO8)3,-2.446619335186064
mp-2716137,Na6Sc2Al2Si3(SO8)3,-2.717510823269397
mp-2716162,NaTa2Al2P5SO24,-2.887424726669342
mp-2716202,NaNb2Al2P5SO24,-2.8167310555836282
mp-2716205,Na6Y2Al2Si3(SO8)3,-2.713784466019397
mp-2716230,Na6Al2Ga2Si3(SO8)3,-2.47705644672773
mp-2716267,Na6La2Al2Si3(SO8)3,-2.701299881519397
mp-2716297,NaHf2Al2P3(SO8)3,-2.782897724127844
mp-2716322,NaAl2Sn2P3(SO8)3,-2.401574028889749
mp-2716362,Na10Ta6Al2Si11SO48,-3.019487546392647
mp-2716385,NaZr2Al2P3(SO8)3,-2.74122610488975
mp-2716431,NaAl2Ge2P3(SO8)3,-2.371834713365939
mp-2716473,Na10Nb6Al2Si11SO48,-2.923407719802904
mp-2716556,NaTi2Al2P3(SO8)3,-2.674128369461177
mp-534863,CaMg2TiAl2SiO10,-3.377986524313725
mp-776523,NaLi3Ti2Al2(PO4)6,-2.958606519365871
mp-1197875,Ba4NaAl2B8(BrO6)3,-3.032328896519797
mp-1204585,Ba4NaAl2B8(ClO6)3,-3.080735715408685
mp-1180232,NaCa2Al2As2O11F4,-2.420130023017241
mp-1201269,CaCeAl2FeSi3O13,-3.247527517142857
mp-696825,Ca2Al2FeSi3HO13,-3.079444635511364
mp-745107,Ca2MnAl2Si3HO13,-3.1185331772355
mp-1211355,KLiAl2Si4(O5F)2,-2.940533649529168
mp-1198749,Ca2Al2Si6Sn(H3O11)2,-2.794801625320512
mp-1203018,Sr4Li2Ta2Al2N8O,-1.494390203754386
mp-1215091,Ca2Al2Si6Sn(H3O11)2,-2.416336819935896
mp-558954,Na2Sr2Al2PO4F9,-3.603889914745073
mp-23872,Ca3Al2H6S(OF)8,-2.835444810178571
mp-709723,Al2P3H17C4(NO6)2,-1.442763188879464
mp-720723,KAl2NiP3(H2O7)2,-2.456250234047142
mp-559534,Ba5Al2In2IrClO13,-2.699298291388888
mp-1201658,MnAl2P2H10O13F2,-2.178472947490557
mp-1204491,Ca2MnAl2Si4BO16,-3.151682768926834
mp-1204548,Ca4Al2P2H10O13F8,-2.73170999260989
mp-1233357,CaAl2H4Pb2(O2F3)2,-2.465772947105262
mp-1233986,CaAl2H4Pb2(O2F3)2,-2.51484894236842
mp-1234096,CaAl2H4Pb2(O2F3)2,-2.51408868236842
mp-1234634,MgAl2H4Pb2(O2F3)2,-2.4115538426315792
mp-1234851,MgAl2H4Pb2(O2F3)2,-2.386834244210526
mp-1236332,LiAl2H4Pb2(O2F3)2,-2.433131684122806
mp-1236334,LiAl2H4Pb2(O2F3)2,-2.431359485175438
mp-43114,Ca3TiAl2Si3O13F2,-3.521060034513889
mp-727393,Ca2MnAl2Si4BO15,-3.087395360083908
mp-734098,Ca2Al2FeSi4BO16,-3.132356512467948
mp-698033,KAl2P2H8O12F,-2.26136757294368
mp-1214670,Ca4Be2Al2Si9(HO14)2,-3.234690236010637
mp-1221240,Na4Al2GaSi3BrO12,-2.925580733174662
mp-723020,Al2Si2H5C2NO10,-1.833750896420454
mp-1195311,CaLaMgAl2Si3HO13,-3.319122309602274
mp-707176,NaCa2Al2P2H5O11F4,-2.813821764330185
mp-708964,Al2P2H8C2NO8F,-1.829095832886904
mp-1199124,NaAl2H18S4N4ClO18,-1.520686572372485
mp-1223736,K6Na3Ti2Al2Si8Cl3O26,-3.033737014486092
mp-24392,Ca2Al2FeSi4BHO16,-3.105086537608023
mp-1221604,Na2CaMnAl2P2H2(O5F2)2,-2.93275328010312
mp-571247,Al3Mo,-0.363495063749999
mp-985825,Al3Cu,-0.103018489999999
mp-1038916,MgAl3,0.016106823750000002
mp-1065309,ZrAl3,-0.497545876249999
mp-1070580,Al3Ru2,-0.7752910740000001
mp-1183175,Al3Pt,-0.504874686406243
mp-1183189,Al3Au,-0.168010847500003
mp-1183195,Al3Ge,0.09748668375000001
mp-1183200,Al3Sn,0.163227461249999
mp-1183412,BeAl3,0.15958069625000001
mp-16521,Al3Os2,-0.595852814000002
mp-1842,NbAl3,-0.49387702249999904
mp-2554,Al3V,-0.34389383499999904
mp-2614,HfAl3,-0.42420176750000105
mp-31178,DyAl3,-0.33733428875000004
mp-395,ZrAl3,-0.530828846249999
mp-542915,TiAl3,-0.43388963166666605
mp-568718,HfAl3,-0.43728276999999904
mp-867347,Al3Tc,-0.35496799250000005
mp-867780,Al3Cr,-0.15663263999999802
mp-869,TaAl3,-0.37362651433333105
mp-975906,LiAl3,-0.07758537916666601
mp-976150,NaAl3,0.187913990862068
mp-999204,ScAl3,-0.38594177624999904
mp-16724,Zr5Al3,-0.435863635624999
mp-1208324,Ti2Al3,-0.13822970816666602
mp-1210739,Mg2Al3,0.10601426150000001
mp-1057,Al3Ni2,-0.644216627999999
mp-1069983,Al3Ru2,-0.5328650539999981
mp-1070275,Al3Tc2,-0.20712806933333003
mp-10886,Al3Cu2,-0.195314849999999
mp-10901,Al3Pd2,-0.812340915999999
mp-10905,Al3Pt2,-1.102624861999999
mp-569916,Al3Pt2,-0.746760598999998
mp-1102065,HoAl3,-0.46566347958333104
mp-1103088,DyAl3,-0.47229792874999704
mp-1106237,DyAl3,-0.46682122624999906
mp-1189958,TbAl3,-0.46864829299999805
mp-2451,YAl3,-0.46262733500000003
mp-369,TbAl3,-0.47728138749999904
mp-542177,PuAl3,-0.39496713468750005
mp-862656,ErAl3,-0.45782841633333005
mp-898,HoAl3,-0.463137868749998
mp-16480,Al3Au8,-0.28178494340909804
mp-1025223,Hf4Al3,-0.44648299857142804
mp-12752,Zr4Al3,-0.51850827
mp-1178742,Y5Al3,-0.32316800177083305
mp-1178983,Ta5Al3,-0.18126332913332902
mp-2044,Zr5Al3,-0.400025199124996
mp-2361,Hf5Al3,-0.34032690062499704
mp-1039119,MgAl3,0.025411212500000002
mp-11232,YAl3,0.472421888749998
mp-1183180,Al3P,0.06645275050595201
mp-1184171,ErAl3,-0.46033289458333104
mp-1184638,HoAl3,-0.47123678750000003
mp-1186809,PuAl3,-0.403848118437498
mp-1187755,UAl3,-0.210392372499999
mp-1188814,Al3Ru,-0.43394595233333505
mp-12553,PrAl3,-0.484099906666665
mp-1306,ThAl3,-0.43703121999999706
mp-1389,PuAl3,-0.39277699864582805
mp-16513,NdAl3,-0.49270663437499806
mp-2294,Al3Ir,-0.7665281825000001
mp-567305,CeAl3,-0.45864147125000004
mp-569981,DyAl3,-0.47028015312499705
mp-862617,AcAl3,-0.40891574812500003
mp-862844,PaAl3,-0.28586308999999904
mp-862980,PmAl3,-0.49918408437499906
mp-864995,DyAl3,-0.48056081874999806
mp-865411,GdAl3,-0.454503636249999
mp-865527,YAl3,-0.47452011250000004
mp-867232,TbAl3,-0.48873532374999906
mp-867870,SmAl3,-0.49444112125000006
mp-959,LaAl3,-0.48935344749999904
mp-973539,LuAl3,-0.428662650416663
mp-977216,NpAl3,-0.33972562843749904
mp-979040,TmAl3,-0.45383418499999906
mp-984873,Al3Fe,-0.154061757499999
mp-1190736,Ca8Al3,-0.176105388181817
mp-1180309,Mn2Al3,-0.245703806672413
mp-1007730,HfAl3,-0.410446804999999
mp-1008554,Al3V,-0.205302369999998
mp-10890,LiAl3,-0.09328981916666601
mp-10907,PuAl3,-0.36157300468750003
mp-11231,YAl3,-0.43952992750000003
mp-1183127,Al3Pd,-0.35171515406250003
mp-1183129,Al3As,0.050127136875001005
mp-1183130,Al3Ag,0.047100010124999
mp-1183131,Al3Sn,0.158353866249999
mp-1183140,Al3Cd,0.1368252375
mp-1183161,Al3Cu,-0.06324690249999901
mp-1186098,NaAl3,0.166475473362068
mp-1186855,TbAl3,-0.45562231499999906
mp-1259,YbAl3,-0.451476316249998
mp-1723,UAl3,-0.264968751249998
mp-1877,HoAl3,-0.455262071249999
mp-2121,ScAl3,-0.479127356249999
mp-2134,ErAl3,-0.45235782583333106
mp-2573,NpAl3,-0.30263384468749804
mp-2805,LuAl3,-0.43727457416666404
mp-567589,DyAl3,-0.45651819124999804
mp-569775,ZrAl3,-0.5096497962500001
mp-570409,PrAl3,-0.395601976666664
mp-768,TmAl3,-0.451976679999999
mp-973865,PaAl3,-0.24641417249999903
mp-983584,Al3Tl,0.284703616666664
mp-983585,Al3Zn,0.036298491249999
mp-983594,Al3Ga,0.0434441775
mp-998981,TiAl3,-0.41083221666666603
mp-1200220,Al3Ir,-0.6682274303124981
mp-1039180,MgAl3,0.092860188749999
mp-1183138,Al3H,0.38853222406249904
mp-1255847,NaAl3,0.22342497086206903
mp-1217027,TiAl3,-0.278687636666667
mp-1482,Zr2Al3,-0.5809886159999991
mp-846,Hf2Al3,-0.48079304500000103
mp-1501,Al3Pt5,-0.9792966056250021
mp-16523,Al3Pd5,-0.857533224374996
mp-622209,Al3Ni,-0.418775703125
mp-2047851,NpAl3,-0.3581508809375
mp-16514,Al3Ni5,-0.563250544999998
mp-1228562,Al3GeW2,-0.108123527055552
mp-1216892,U2Al3Cu7,-0.079435357499998
mp-1223301,La2Al3Cu7,-0.345282135833331
mp-1069375,NdAl3Cu,-0.518551503499999
mp-1069443,CeAl3Cu,-0.49259246200000106
mp-1069603,LaAl3Au,-0.6605854510000011
mp-1069825,PrAl3Cu,-0.5118632363333331
mp-1070063,CeAl3Au,-0.579720583999998
mp-1070573,LaAl3Cu,-0.5198575469999991
mp-1076933,GdAl3Cu,-0.48077337999999903
mp-1215459,YbAl3Au,-0.6037967909999991
mp-1218359,SrAl3Ag,-0.29725167699999905
mp-1219105,SmAl3Cu,-0.516801621999999
mp-1219803,PrAl3Ag,-0.410090092666667
mp-1224113,HoAl3Cu,-0.42391713699999806
mp-1225249,EuAl3Si,-0.33291632600000304
mp-1226619,CeBeAl3,-0.312994214999999
mp-1226650,CeAl3Ag,-0.34974247633333205
mp-1226791,CaAl3Au,-0.550265749999997
mp-1219263,Sm6Al3Fe11,-0.139740275500003
mp-1219995,Pr6Al3Fe11,-0.10837308549999901
mp-1220621,Nd6Al3Fe11,-0.12337030899999901
mp-1223390,La6Al3Fe11,-0.121115257499999
mp-1228022,Ce6Al3Fe11,-0.11357848774999801
mp-1228467,Al3FeSi2,-0.20883508083333302
mp-541732,Al3Pb5F19,-3.150128730462936
mp-1220675,Nb2(AlGa)3,-0.413397511249999
mp-1228605,Al3(MoS2)8,-0.8686606361851821
mp-1215933,YAl3Ag,-0.39580244485333205
mp-1217573,TbAl3Ag,-0.353569573666665
mp-1222880,LaBeAl3,-0.252044398
mp-1226634,CeAl3Pd,-0.621950383833342
mp-1226648,CeAl3Pt,-0.703615607999998
mp-1226654,CeAl3Cu,-0.41092022800000005
mp-12004,Er2Al3Si2,-0.569591645238095
mp-12005,Tm2Al3Si2,-0.565788572857142
mp-1207111,Mg2(AlSi2)3,0.25817886909090804
mp-1207132,Mg2(AlSi2)3,0.230925759090909
mp-1215372,Zr4NbAl3,-0.37814431062500004
mp-1224112,Ho8(AlGe3)3,-0.722412820749998
mp-3194,Tb2Al3Si2,-0.5871108628571421
mp-3328,Ho2Al3Si2,-0.577433002857144
mp-3513,Dy2Al3Si2,-0.583507309999999
mp-9177,Y2Al3Si2,-0.5741434414285721
mp-1224506,Hf(AlNi4)3,-0.4456130586875
mp-1228921,Al3Ni2Pt,-0.7399057316666651
mp-1228973,Al3ZnCr8,-0.035774000000001
mp-1229029,Al3Ni9C,-0.34921071442307805
mp-1229039,Al3ZnNi12,-0.353053207499999
mp-541849,Al3(BRu2)2,-0.6468797016666671
mp-1190521,Y5Al3C4,-0.3787275525
mp-24822,Na5Al3H14,-0.24550733465909003
mp-4752,Na5Al3F14,-3.5173196765909083
mp-679951,Ba17Al3O7,-1.454806952962963
mp-29066,Al3Fe2Si3,-0.32133712531249903
mp-1213348,Er6Al3Si,-0.463407909166662
mp-17652,Tb6Al3Si,-0.467453344375005
mp-557911,Al3Pb5F19,-3.129961640277751
mp-1228473,Al3GePd4,-0.7834801931249981
mp-1228485,Al3CrO6,-3.147947862999999
mp-1228909,Al3SiPd4,-0.823905626874999
mp-1178115,LaAl3O6,-3.5141365565
mp-768572,YAl3O6,-3.5086665855
mp-28714,Dy(AlCl4)3,-1.8984446363541672
mp-29796,Ho(AlCl4)3,-1.8941276346875
mp-29844,Tb(AlCl4)3,-1.902252308958332
mp-570857,Y(AlCl4)3,-1.8975643108333342
mp-1209201,Sm(AlBr4)3,-1.7313508394791661
mp-1214275,Ce(AlBr4)3,-1.7222087931249992
mp-28757,Nd(AlBr4)3,-1.7408773494270822
mp-567874,Pr(AlBr4)3,-1.742100152812498
mp-568896,La(AlBr4)3,-1.7695752034375
mp-1215611,Yb8Al3Ga,0.362589723333333
mp-1228359,Ba5Al3Cu2,0.109208046999999
mp-1215737,Zr2Al3C4,-0.401408952222221
mp-608080,Al3(PO4)4,-2.641377338742236
mp-1106052,Dy2Al3Fe14,-0.11257880649122701
mp-1106291,Pr2Al3Co14,-0.10240115103543
mp-1215442,Zr2Al3Zn,-0.5873724908333331
mp-1215477,Zr2Al3Ni,-0.581107719999998
mp-1215491,Zr2Al3Cr,-0.42469409616665804
mp-1215510,Zr2Al3Co,-0.5212570349999971
mp-1215843,Yb2Al3Ga,-0.586302245000001
mp-1215847,Yb2Al3Cu,-0.5223677200000001
mp-1216123,Y2Al3Fe,-0.39486186833333103
mp-1216582,U2Al3Si,-0.271906182291668
mp-1216716,U2Al3Ga,-0.267738166249998
mp-1216801,U2Al3Fe,-0.092475271666663
mp-1216810,U2MnAl3,-0.12143095465516901
mp-1217683,Tb2Al3Pt,-0.882064643749998
mp-1217686,Tb2Al3Co,-0.437675075555555
mp-1217687,Tb2Al3Fe,-0.39424592888888704
mp-1220320,Nd2Al3Ga,-0.5976885054166651
mp-1222342,Lu2Al3Fe,-0.415488330555553
mp-1223215,La2MgAl3,-0.39345728416666703
mp-1223802,Hf2Al3Zn,-0.500790564166668
mp-1223820,Hf2Al3Cu,-0.444173343333333
mp-1223828,Hf2Al3Ni,-0.586813046666667
mp-1224034,Ho2Al3Fe,-0.40199048666666404
mp-1224324,Hf2Al3Ag,-0.411147642499997
mp-1224327,Hf2Al3Au,-0.5988095116666631
mp-1225037,Er2Al3Ga,-0.593642697777779
mp-1225045,Er2Al3Co,-0.45715919666666505
mp-1225048,Er2Al3Cu,-0.461161614999999
mp-1225288,Dy2Al3Cu,-0.46233616388888804
mp-1225300,Dy2Al3Co,-0.44226326722222004
mp-1225310,Dy2Al3Fe,-0.397417413888886
mp-1225429,Eu2Al3Ag,-0.393477641249996
mp-1225452,Eu2Al3Ga,-0.47682150833333503
mp-1226882,Ce2Al3Fe,-0.33688572166666403
mp-1228939,Al3NO3,-2.851642502142858
mp-1190659,Eu2(AlAu2)3,-0.66169265409091
mp-1196964,Ba3Al3P5,-0.9240449513528131
mp-1203016,Ba3Al3As5,-0.882498852348484
mp-645282,Al3Bi5Br12,-1.1272806475000041
mp-646102,Al3Bi5Cl12,-1.472460161249999
mp-1079781,LiCaAl3,0.175401561666666
mp-1228599,Al3BC3,-0.23713364392857203
mp-1215717,Yb(AlC)3,-0.501165115714284
mp-1429387,Y(AlC)3,-0.27056727428571303
mp-567770,Zr2Al3C4,-0.235198005555553
mp-568155,U(AlC)3,-0.17870322285714102
mp-568400,Sc(AlC)3,-0.500590522142855
mp-8894,U2Al3C4,-0.16949308833333201
mp-1218857,Sr2Al3Ge,-0.33378059249999903
mp-1223244,La2Al3Ge,-0.650073346666668
mp-1225345,Dy4Al3Fe5,-0.217407218888885
mp-1215683,Zr10(AlSb)3,-0.650726246874999
mp-1224425,Hf10(AlSi)3,-0.5649101281249921
mp-1025102,CeAl3Pt2,-0.9723914549999981
mp-1025136,EuAl3Cu2,-0.37079765416667004
mp-11539,SmAl3Pd2,-0.9046129499999981
mp-1189515,LuAl3Ni2,-0.6959049972222211
mp-1189717,EuAl3Pd2,-0.754578290833333
mp-1190028,TmAl3Ni2,-0.654925670000003
mp-1206258,NpAl3Pd2,-0.6399809227083321
mp-1206289,PuAl3Pd2,-0.5981468064583311
mp-1208292,TbAl3Cu2,-0.49504437333333307
mp-1208327,TbAl3Ni2,-0.655207317222221
mp-1208873,SmAl3Ni2,-0.6360941424999981
mp-1212127,HoAl3Ni2,-0.651546777499998
mp-1212604,GdAl3Ni2,-0.644449127222223
mp-1212853,DyAl3Ni2,-0.6560490008333311
mp-1225214,EuAl3Ag2,-0.34761713916666703
mp-12734,NdAl3Pd2,-0.850864329583335
mp-13490,ErAl3Ni2,-0.661009991111109
mp-20338,CeAl3Ni2,-0.608201551666667
mp-22505,GdAl3Pd2,-0.8821796683333311
mp-2903,UAl3Ni2,-0.40576017666666503
mp-30181,PrAl3Ni2,-0.597241060277776
mp-30182,ThAl3Ni2,-0.6543779616666661
mp-30815,LaAl3Pd2,-0.886161825833333
mp-4561,UAl3Pd2,-0.614038081250001
mp-4785,CeAl3Pd2,-0.8546510016666651
mp-5063,YAl3Ni2,-0.653710698888882
mp-7186,NdAl3Ni2,-0.610513811249999
mp-1207406,Zr5Al3N,-0.8227287799351911
mp-1208344,Ta5Al3C,-0.407897673318517
mp-1212439,Hf5Al3C,-0.548985517654317
mp-1214915,Al3(V3C2)4,-0.616240705434781
mp-27568,Ba10Al3Ge7,-0.5052956942499991
mp-972176,Zr5Al3C,-0.595170857635802
mp-977347,Hf5Al3N,-0.769777044083339
mp-10900,U2Al3Os,-0.25355534749999703
mp-10911,Sc2Al3Ru,-0.6516289283333321
mp-1104050,Y(AlC)3,-0.28039572285714803
mp-1104636,Er(AlC)3,-0.312204245714286
mp-1104803,Dy(AlC)3,-0.45273018785714203
mp-1104806,Gd(AlC)3,-0.395696543571428
mp-1189539,Hf2Al3C5,-0.272413799166673
mp-1196730,Y2Al3Fe14,-0.11689433078947101
mp-1199551,Er2Al3Fe14,-0.133997626842104
mp-1204905,Y2Al3Co14,-0.185420519736842
mp-1205177,Ho2Al3Co14,-0.19580540473684102
mp-1207596,Yb(AlC)3,-0.501195158571428
mp-1211199,Li4(AlCu2)3,-0.195455340256409
mp-1214836,Al3BC3,-0.23412480369047403
mp-1217248,Ti2Al3Ni,-0.47945776777777704
mp-1220700,Nb2Al3Ir,-0.6278039591666691
mp-1223870,Hf2Al3Pd,-0.6895392691666681
mp-1224377,Hf2Al3Co,-0.48565504416666605
mp-1226835,Ce2Al3Ru,-0.523820690833332
mp-1228446,Al3BC,-0.202281617499998
mp-16490,Lu2Al3Co,-0.501053334722221
mp-2011402,U(AlC)3,-0.348283970714285
mp-2015224,U2Al3C4,-0.321150621666665
mp-4798,Sc(AlC)3,-0.500998362857142
mp-567748,Zr2Al3C4,-0.6250937844444431
mp-567849,Er2Al3Co,-0.488614176666666
mp-569218,Ba3Al3Ga2,-0.34317177062499804
mp-569326,Zr4(AlC2)3,-0.7534914796153851
mp-570156,Zr3Al3C5,-0.360772584545468
mp-570419,Zr3Al3C5,-0.7047076563636351
mp-570784,Hf2Al3C4,-0.64716877888889
mp-571402,Zr2Al3C5,-0.21333755174999502
mp-642493,Hf3Al3C5,-0.7435239459090891
mp-972049,Tb(AlC)3,-0.43824162928571303
mp-973586,Lu(AlC)3,-0.337989179523808
mp-973634,Ho(AlC)3,-0.29895053571429103
mp-979041,Tm(AlC)3,-0.490421312857141
mp-1029733,Sr3Al3N5,-1.316455246249999
mp-1029921,Ca3Al3N5,-1.430873635340908
mp-1193561,Al3(SiO5)2,-2.812717536
mp-1199889,Al3(PO8)2,-1.6388886066326531
mp-1247208,Mn3Al3N5,-0.520907114435737
mp-1247525,Ba3Al3N5,-1.0919423013636371
mp-1410367,Na7Al3O8,-0.9783609066475091
mp-556168,Na7Al3O8,-2.469318016369729
mp-558703,Al3Pb5F19,-3.145028351018492
mp-675084,Ca4Al3O10,-2.652592740294117
mp-1228632,Al3Cr20Si9,-0.051741407312498
mp-1019378,Al3GaN4,-1.409947991875
mp-1019380,Al3BN4,-1.361155477187498
mp-30134,Li8Al3Si5,-0.008507094791666
mp-1212582,Eu2Al3O8,-3.1897769542307692
mp-1214131,Ca2Al3O8,-2.958430313461538
mp-14378,Li12Al3Si4,-0.132159855789473
mp-505472,Al3(Ni10B3)2,-0.402885581896529
mp-505537,Al3(Co10B3)2,-0.23253419568965603
mp-1190708,Al3Fe2Si,-0.389890746666666
mp-1214851,Al3Co3Si4,-0.36298908950000003
mp-1219927,Pr2Al3Ag,-0.41806515583333204
mp-1219929,Pr2Al3Ge,-0.657810460555552
mp-1220328,Nd2Al3Ga,-0.5955440870833301
mp-1220330,Nd2Al3Ge,-0.661275530833333
mp-1223225,La2Al3Sn,-0.636868723333333
mp-1226862,Ce2Al3Sn,-0.415748575833332
mp-1228936,Al3WC4,0.540491742109376
mp-1228977,Al3W3C4,0.32898900378947904