material_id,formula,formation_energy_per_atom
mp-10809,AgSnF6,-2.129888439374998
mp-10810,TiAgF6,-2.836437708124999
mp-1100926,VAgO3,-1.676857912833333
mp-1101006,V6AgO15,-2.043587617803029
mp-1206101,AgPbF6,-1.748101063125002
mp-1214922,AgPtF6,-1.430022469374999
mp-1214934,AgRhF6,-1.7064166539583332
mp-1214988,AgMo6Cl13,-1.029996517375002
mp-1238824,Cr2AgS4,-0.6529785009523801
mp-1273356,CoAgO3,-0.742011777333333
mp-1352343,AgPO4,-1.596965384176587
mp-1398557,LiAgF3,-1.139950672833335
mp-1404837,ZnAgF5,-0.682729615952382
mp-1445086,CaAgF5,-1.7775772473809481
mp-14653,AgSb2F12,-2.3875121401111112
mp-1777514,CaAgF5,-2.4499292195238063
mp-1830250,ZnAgF5,-1.705377270238096
mp-2763322,AgSO4,-1.018334732968748
mp-28375,Ta2AgF12,-2.9984202086444443
mp-28965,AgBi2F12,-1.784909150333334
mp-31215,AgPdF6,-1.3849059325
mp-677597,Ta4AgS8,-1.276828668923074
mp-680482,AgMo6Br13,-0.995895149583333
mp-757033,V6AgO15,-2.174808889621211
mp-757915,LiAgF3,-1.991338445833335
mp-990248,TiAgF6,1.802209961875
mp-990257,AgSnF6,1.3258648706250011
mp-997000,AgHgO2,-0.508349317291668
mp-997028,AgO2F,-0.634450612916666
mp-29717,Ag(W3Br7)2,-0.8251726423412681
mp-1200271,AgPd3Se,-0.19395688359027402
mp-567334,Ag(BCl)6,-0.736950766538461
mp-3414,AgSbF6,-2.358844439270832
mp-859118,LiAgF6,-1.337932764583333
mp-1008813,RbAgO,-0.45591307805555503
mp-1008866,NaAgO,-0.7450613493486581
mp-1008903,MgAgSb,-0.27852765555555203
mp-1009048,KAgO,-0.5784837046388871
mp-1100393,LiAgSe,-0.6178952589930561
mp-1100399,HfAgB,0.8752871963888961
mp-1100432,ScSiAg,0.075430832777776
mp-1215383,Zr4ZnAg,-0.05666018333333701
mp-1222611,Li2TlAg,-0.23642475208333302
mp-1222653,Li2MgAg,-0.174071358333332
mp-1222659,Li2GaAg,-0.30800429958333403
mp-16238,Li2AgSb,-0.5181467695833331
mp-30344,Li2InAg,-0.33015537708333104
mp-30349,Li2AgPb,-0.265067092083328
mp-34611,ZnAgAs,0.039595513611111
mp-3477,MgAgAs,-0.19340981472222102
mp-36751,In5AgS8,-0.7032958305357121
mp-542065,CdAgSb,-0.031579532777778
mp-551758,AgClO4,-0.29747421361111104
mp-567347,Li2AgSn,-0.36798695333333203
mp-569333,Li2AgBi,-0.39559465333333305
mp-631561,ZrAgMo,0.9523461230555531
mp-631567,AgAsRu2,0.49340496645833504
mp-631575,TiCrAg,0.8785086724999991
mp-631674,LaRe2Ag,0.6918312399999991
mp-961647,CaAgP,-0.17562905765873102
mp-961701,ZrAgB,0.843246142222222
mp-962069,LiAgTe,-0.560684517222221
mp-1055491,RbAgF3,-2.129714515833333
mp-10666,Mn3AgN,-0.17710310152298803
mp-1075933,SmAgO3,-1.694632306333333
mp-1076000,LaAgO3,-1.886074956333334
mp-1077622,EuAgO3,-1.506662538333333
mp-1094009,YAgO3,-1.5306613273333332
mp-1183417,BeAgO3,-0.777852184333333
mp-1184234,FeAgO3,-0.695022397333332
mp-1186101,NaAgO3,-0.40695186160919405
mp-1186999,SiAgO3,-1.654687447333333
mp-1187189,TaAgO3,-2.3922839567999983
mp-1206344,MnAgF3,-1.339749738919539
mp-1206910,CoAgF3,-1.628311681333333
mp-1206915,CoAgF3,-0.8400399793333331
mp-1209766,NiAgF3,-0.802587209000003
mp-1210575,MgAgF3,-1.585853740333333
mp-12725,NbAgO3,-2.147779927333332
mp-13819,KAgF3,-2.107393218783332
mp-14099,ZnAgF3,-1.932383004000004
mp-1418929,YAgO3,-1.5807499173333341
mp-1946459,CsAgBr3,-1.234567609264368
mp-1947055,RbAgBr3,-1.049502209749999
mp-1975771,RbAgCl3,-1.4168307758333332
mp-2464440,KAgCl3,-1.184942590249997
mp-2763000,TlAgF3,-1.5914018170000022
mp-975421,RbAgO3,-0.453735536833333
mp-976229,KAgO3,-0.49075426278333206
mp-977455,PaAgO3,-2.8303952513333472
mp-979294,SrAgO3,-1.386157267333332
mp-985292,AgBO3,-0.546613989166666
mp-998358,MgAgF3,-2.748547396333332
mp-998365,NiAgF3,-1.735710937000003
mp-1006068,Gd2AgRh,-0.505994883749998
mp-1100762,Pm2TlAg,-0.40899353750000206
mp-1100765,Pm2GaAg,-0.47896736499999903
mp-11234,PrMg2Ag,-0.101571408333332
mp-11235,SmMg2Ag,-0.091075006666666
mp-1183076,Ac2AgPb,-0.48027804250000306
mp-1183166,AgBiPd2,-0.188207855000001
mp-1183207,Ba2AgBi,-0.6575103079166651
mp-1183456,Ca2AgPd,-0.46197981124999804
mp-1183516,Ca2AgRh,-0.299633551249998
mp-1183537,Cd2AgPt,-0.174336392916664
mp-1183716,Ce2TlAg,-0.117943408749999
mp-1183725,Ce2AgSn,-0.33591212666666403
mp-1183760,Ce2AgHg,-0.157455481041666
mp-1183883,Eu2AgBi,-0.751411594166668
mp-1183890,Eu2AgSn,-0.5876666862500031
mp-1183893,Eu2AgHg,-0.43878553812500304
mp-1183896,Eu2AgGe,-0.554516290312502
mp-1183902,Eu2AgPd,-0.482664801666672
mp-1183904,Eu2AgPt,-0.6038651929166681
mp-1183909,Eu2AgRh,-0.331835102125001
mp-1183942,Eu2AgSb,-0.7561822879166691
mp-1184075,Er2AgHg,-0.407943068541667
mp-1184083,Er2ZnAg,-0.33640984041666505
mp-1184085,Er2AgPt,-0.8117368754166651
mp-1184095,Dy2ZnAg,-0.319737936249998
mp-1184130,Er2TcAg,-0.161452126666665
mp-1184131,Er2AgOs,-0.319309517916666
mp-1184152,Dy2GaAg,-0.45524929812499704
mp-1184170,Dy2InAg,-0.387366120416663
mp-1184199,Eu2AgPb,-0.44498405291666804
mp-1184305,Gd2GaAg,-0.455731104791665
mp-1184352,Gd2AgHg,-0.38752221812499904
mp-1184356,Eu2ZnAg,-0.267360897916669
mp-1184366,Gd2TlAg,-0.364098448749999
mp-1184371,Gd2AgIr,-0.566996866249994
mp-1184380,Gd2ZnAg,-0.276772129999997
mp-1184389,EuAgHg2,-0.378902198611115
mp-1184415,Gd2AgRu,-0.26861557750000004
mp-1184621,Ho2AgOs,-0.291966002916662
mp-1184631,Ho2AgRu,-0.36814316791666
mp-1184634,Ho2ZnAg,-0.323386290416662
mp-1184662,Ho2GaAg,-0.45851805979166504
mp-1184691,Ho2AgHg,-0.397117221041666
mp-1184969,Li2AgGe,-0.24182931583333303
mp-1184976,Li2CdAg,-0.21697415958333302
mp-1184977,Li2AgBi,-0.371934438333333
mp-1184979,Li2AgPb,-0.25068034708333103
mp-1185050,La2TlAg,-0.336693293750004
mp-1185092,LaZn2Ag,-0.302387559374999
mp-1185100,La2AgHg,-0.428156240625
mp-1185195,La2InAg,-0.46014065625000106
mp-1185379,LiIn2Ag,-0.20419727041666302
mp-1185422,LiZn2Ag,-0.164231135416667
mp-1185507,LuAgHg2,-0.327388936666665
mp-1185602,La2GaAg,-0.46488699124999705
mp-1185662,Mg2CdAg,-0.13715745041666502
mp-1185749,Mg2AgPd,-0.47207504541666506
mp-1185750,Mg2AgHg,-0.21508312104166702
mp-1186123,NaCd2Ag,-0.034234010761492004
mp-1186235,Nd2AgRu,-0.22035874703125202
mp-1186236,Nd2CdAg,-0.26713386166666303
mp-1186238,Nd2GaAg,-0.45825639249999706
mp-1186256,Nd2TlAg,-0.319850047500001
mp-1186279,Nd2InAg,-0.45081184250000206
mp-1186433,Pm2AgHg,-0.43048572437500304
mp-1186439,Pm2AgOs,-0.191615904999999
mp-1186684,Pr2GaAg,-0.38737868562499705
mp-1204059,Fe3Ag7(P2O7)4,-2.015074258669771
mp-28963,Ag8S,0.229205100798607
mp-646824,Ca3Ag8,-0.21144300000000002
mp-676168,Ag8GeTe6,-0.040192731833326
mp-676555,Ag8GeTe6,-0.00626296416666
mp-676799,Ag8GeTe6,-0.044082224166659
mp-685969,Ag8GeTe6,-0.059042925499992
mp-29682,BaAg8S5,-0.521217914345237
mp-5669,Ca19Ag8N7,-0.6252610694485331
mp-1228614,Ba2Ag8S7,-0.741530335637251
mp-17984,Ag8SnSe6,-0.21050978895833203
mp-18474,Ag8GeSe6,-0.33250190015972203
mp-15645,Ag8SnS6,-0.20496340979166602
mp-557833,Ti(Ag4S3)2,-0.47477240627777606
mp-7614,Si(Ag4S3)2,-0.285906270458332
mp-9770,Ag8GeS6,-0.32725660305555204
mp-679950,Ag8Ge3O10,-1.051739932777777
mp-1229180,Ag8Sb5As3S16,-0.20029088828125102
mp-1235411,LiSi2(AgO)8,-1.284922407719296
mp-559745,SiAg8(SO2)2,-0.5418326168888871
mp-1215006,Ag8Hg(AsO5)2,-0.7481854236111101
mp-554913,Cr3Ag8(IO6)2,-1.010423176133333
mp-1233835,MgSi2(AgO)8,-1.32940045359649
mp-1234407,CaSi2(AgO)8,-1.3780140538596481
mp-1235249,LiSi2(AgO)8,-1.262575320877192
mp-1233615,MgSi2(AgO)8,-1.287813874649122
mp-1234365,CaSi2(AgO)8,-1.315185940175437
mp-1235565,LiSi2(AgO)8,-1.294905865087717
mp-21975,In4Ag9,-0.054241077115385006
mp-676260,Ag9Te4Br3,-0.32156099541666505
mp-675327,Ag9(PbO3)4,-0.8176260189999981
mp-27163,Ga(Ag3Se2)3,-0.24162111121093502
mp-1223267,La2(MgAg3)3,-0.266081717142856
mp-651048,Ag9(BiO3)2,-0.40367467499999904
mp-676430,Ag9(SI)4,-0.206386471470586
mp-1219350,Si2Ag9NO11,-1.137440053695651
mp-1229182,Ag9Ge2NO11,-0.8601393658695641
mp-561034,Ag9Ge2IO8,-0.852792308999998
mp-1195618,Ag9P14(OF)28,-2.370250809303797
mp-1219697,Rb3Ag9(SbS3)4,-0.58056713455357
mp-1224211,K3Ag9(SbS3)4,-0.454317721498016
mp-1226259,Cs3Ag9(SbS3)4,-0.5829080383559101
mp-1219303,Si3Ag10S11,-0.38052212089846404
mp-1369374,Si4Ag10O13,-0.30206264598765303
mp-651688,Si4Ag10O13,-1.5733835333950612
mp-988484,Si4Ag10O13,3.795505504938272
mp-568386,Ag10Te4Br3,-0.36435031196078305
mp-568392,Ag10Te4Br3,-0.366431655490194
mp-1211389,La4Mg3Ag10,-0.295821335392149
mp-1195654,Ba9U4(Ag5S12)2,-1.52362464833333
mp-1229222,Ag10Te4BrCl,-0.33069498614583104
mp-770433,Ag11Hg9,0.078607919083339
mp-553910,KV4Ag11O16,-1.327608614236978
mp-1222115,Mg7GaAg12,-0.167561485624998
mp-849476,Li17Ag12F29,-2.223470288333332
mp-1215073,Ag12SI,1.5820983019642871
mp-1215080,Ag12SBr,1.563036622678573
mp-1195193,Ag12Sn7H16(Se11N2)2,-0.48019928584528504
mp-1224870,Ga5Ag13,-0.0029189840740690004
mp-676840,Ag13(PbO3)6,-0.823027415585585
mp-685283,Ag13Bi15I64,-0.5484598862137681
mp-686119,Ag13(BiI4)14,-0.6267792782128511
mp-510349,Ag13OsO6,-0.45155967283333204
mp-1199256,Ag13As3(IO3)4,-0.833353502786457
mp-1233144,MgAg14(PbO3)6,-0.8457207489316231
mp-1233398,MgAg14(PbO3)6,-0.877956412521366
mp-1233813,MgAg14(PbO3)6,-0.817274537393161
mp-1233857,MgAg14(PbO3)6,-0.8722554271367511
mp-1233887,MgAg14(PbO3)6,-0.8422011961111101
mp-1234105,MgAg14(PbO3)6,-0.84061570559829
mp-1234290,MgAg14(PbO3)6,-0.8141380968803411
mp-1234337,MgAg14(PbO3)6,-0.8268527294444431
mp-1234623,MgAg14(PbO3)6,-0.8197765622649561
mp-1234794,MgAg14(PbO3)6,-0.86742440534188
mp-1234848,MgAg14(PbO3)6,-0.8425102084188031
mp-1234594,MgAg14(PbO3)6,-0.8638312958547001
mp-1234375,MgAg14(PbO3)6,-0.8610792102136741
mp-1229305,Ag14H8I4(OF2)5,-1.033485704593495
mp-1245378,Ag15W7N19,0.12135913727133901
mp-686149,Ag15(BiI4)16,-0.62567102036842
mp-685512,Ag15Bi7I40,-0.44390911475806405
mp-1229151,Ag15S5I4Br,-0.277351580299998
mp-560328,Ag15P4S16Cl3,-0.48195274154135204
mp-1326744,Tl2Ag16Te11,0.40249555752873606
mp-685196,Tl2Ag16Te11,-0.20227541626436601
mp-542496,Ca6Ag16N,-0.315113251250001
mp-1215118,Ag16HgAs4S15,-0.29417095789351705
mp-678,Mg54Ag17,-0.109799734624412
mp-1224231,In9Ag17,-0.046288629615385005
mp-531980,Tl4Ag18Te11,-0.266013636868689
mp-1203532,K4Ag18Te11,-0.42831694204040205
mp-1233354,MgAg20(BiO4)4,-0.6701858387398361
mp-1233510,MgAg20(BiO4)4,-0.649728129471543
mp-1233648,MgAg20(BiO4)4,-0.663014047520323
mp-1233999,MgAg20(BiO4)4,-0.6611784680081281
mp-1234352,MgAg20(BiO4)4,-0.6619051431300801
mp-1234379,MgAg20(BiO4)4,-0.6661765241056891
mp-1234473,MgAg20(BiO4)4,-0.691186946544714
mp-1234997,MgAg20(BiO4)4,-0.665018676544713
mp-28729,Ag25(BiO6)3,-0.5467989480797101
mp-1229256,Ag32Te20As3,0.21351861106060202
mp-674968,Ag33(PbO3)14,-0.810954092528088
mp-569932,Tl7(Ag18Te11)2,-0.25945775707692204
mp-1216365,Y14Ag51,-0.243491059923077
mp-1217575,Th14Ag51,-0.14023077976922801
mp-1217874,Tb14Ag51,-0.23806717751281803
mp-1219378,Sm14Ag51,-0.254334374076923
mp-1220249,Pr14Ag51,-0.23547985782051
mp-1220721,Nd14Ag51,-0.25395384707692104
mp-1224563,Ho14Ag51,-0.22776911499999702
mp-1225453,Er14Ag51,-0.22715496284615103
mp-1225847,Dy14Ag51,-0.23288634074358702
mp-685442,Tl18Ag59Se39,-0.195146629494439
mp-1186932,Sc2AgPt,-0.7794751104166641
mp-1186953,Sc2ZnAg,-0.319205352916665
mp-1187000,Sm2GaAg,-0.482621383749997
mp-1187401,ThAgHg2,-0.19754011166666702
mp-1187527,TlAgPd2,-0.171764640892853
mp-1187589,Tm2TcAg,-0.202943497576754
mp-1187701,Y2AgHg,-0.46326922812500304
mp-1187704,Y2ZnAg,-0.344864812499999
mp-1187711,Y2GaAg,-0.46587621229166604
mp-1187877,Yb2AgSb,-0.512832003749998
mp-1187926,ZnAgPd2,-0.304421807916665
mp-1187928,Yb2ZnAg,-0.386462157500002
mp-1187942,YbAgHg2,-0.346523201250001
mp-1206372,LaMg2Ag,-0.098944289166666
mp-1206546,Cs2AgF6,-1.986505021666665
mp-20149,GdMg2Ag,-0.070372727916666
mp-30350,Li2AgSn,-0.310074078333332
mp-31173,CeCd2Ag,-0.136087185416664
mp-31175,CeMg2Ag,0.0051230820833340004
mp-34418,AgPF6,-2.364613824122023
mp-37153,AgAsF6,-2.201692029895833
mp-644504,NdMg2Ag,-0.101489907291665
mp-861481,Pr2AgRu,-0.165707053749999
mp-861497,Pr2AgIr,-0.41165939374999905
mp-861501,AgHgPd2,-0.13944391354166502
mp-861724,Ac2AgIr,-0.413285237500005
mp-861878,Cd2AgRh,-0.09371767624999801
mp-861988,PrAgHg2,-0.35452353958333904
mp-861993,Ho2TlAg,-0.32988803374999803
mp-862293,La2AgIr,-0.464119215416666
mp-862337,Sc2InAg,-0.42727418124999805
mp-862339,Sc2GaAg,-0.49452463625000004
mp-862366,Sc2TlAg,-0.33774410874999805
mp-862379,Sc2TcAg,-0.24092823166666402
mp-862431,Sc2AgOs,-0.37469696291666704
mp-862432,Sc2AgIr,-0.667457705416666
mp-862473,Sc2AgRu,-0.439213590416665
mp-862702,Sc2AgHg,-0.38885600062500103
mp-862873,AcAgHg2,-0.39835183112494804
mp-862874,PmAgHg2,-0.42187006187499704
mp-862973,PmZn2Ag,-0.29587331312500303
mp-862977,Pm2AgIr,-0.558517127500003
mp-862978,Er2AgRu,-0.39368670791666505
mp-862979,Pm2AgGe,-0.581500837499998
mp-862989,Pm2AgPt,-0.7502617999999971
mp-862990,Pm2AgSn,-0.597936879999998
mp-862991,Pm2AgRu,-0.25973921374999803
mp-863667,Er2TlAg,-0.33563325125000104
mp-863743,Pm2SiAg,-0.47706193624999904
mp-864598,LiMg2Ag,-0.198029603749999
mp-864646,ErAgHg2,-0.31478544166667
mp-864775,HoAgHg2,-0.31993266541666904
mp-864791,PaAgTe2,-0.444656681250002
mp-864893,NdAgHg2,-0.41674535687499703
mp-864932,Mg2AgPt,-0.5584403854166641
mp-864933,Mg2AgRh,-0.362776732916665
mp-864976,Mg2AgIr,-0.28380000041666503
mp-864977,Dy2AgOs,-0.274108186249996
mp-864981,Dy2AgIr,-0.605460821249996
mp-864991,Ca2AgPb,-0.46661966791666404
mp-865161,Dy2AgRu,-0.352306718749997
mp-865214,Lu2TcAg,-0.23632068927083302
mp-865279,Tm2AgOs,-0.39871063374999904
mp-865281,Tm2AgPt,-0.8966955737499941
mp-865282,Tm2AgRu,-0.40883406291667
mp-865297,Ho2InAg,-0.38647792208333104
mp-865300,Tm2AgIr,-0.663874632916668
mp-865446,Lu2AgHg,-0.46645882395833305
mp-865459,Lu2AgRu,-0.43748145124999904
mp-865502,YAgHg2,-0.38327322500000305
mp-865505,Lu2InAg,-0.46273185458333504
mp-865546,Yb2AgBi,-0.38564354500000003
mp-865561,Y2AgRu,-0.321750000416666
mp-865616,Yb2AgIr,-0.7698650212500051
mp-865630,Yb2AgGe,-0.5485388037500021
mp-865654,Y2TlAg,-0.43066110374999705
mp-865660,Yb2AgPt,-0.9154792662499951
mp-865662,Yb2AgPb,-0.419141123749994
mp-865666,Li2TlAg,-0.22788406208333703
mp-865874,Li2AgHg,-0.288340681458333
mp-865885,CeAgHg2,-0.27755000166666705
mp-865987,Li2AgPd,-0.310142087083333
mp-866004,Er2InAg,-0.39379759208332904
mp-866008,Dy2TlAg,-0.33241359958333305
mp-866120,Tm2TlAg,-0.405420333750001
mp-866131,Lu2TlAg,-0.319393562083332
mp-866145,Lu2AgIr,-0.692300233750001
mp-866147,Lu2AgOs,-0.366813546249999
mp-866160,Y2AgIr,-0.5774173904166641
mp-866177,YbAgPd2,-0.6966689650000001
mp-866206,Yb2AgRh,-0.688496306249998
mp-866212,Yb2AgSn,-0.517775671249999
mp-867109,ScZn2Ag,-0.281867579166665
mp-867140,SmZn2Ag,-0.296511144166666
mp-867163,Sr2AgPt,-0.53065463979167
mp-867186,CeZn2Ag,-0.216130537916665
mp-867204,LiCd2Ag,-0.20850401541666402
mp-867218,SmAgHg2,-0.41475869749999805
mp-867239,Ce2AgPb,-0.231864235416663
mp-867245,LaAgHg2,-0.42825449125000103
mp-867260,CdAgPd2,-0.24643497291666402
mp-867311,AcAgTe2,-0.996231785625006
mp-867751,Ca2AgSn,-0.532931791666665
mp-867798,La2AgRu,-0.207928977916666
mp-867801,La2AgSn,-0.538420629166666
mp-867868,Sm2AgIr,-0.5791798606306311
mp-867869,Sm2AgRu,-0.2817299925
mp-867898,DyAgHg2,-0.329545077083334
mp-971979,Tm2ZnAg,-0.374587262500003
mp-972511,Sm2AgSn,-0.525067704166666
mp-972530,Sm2AgRh,-0.48927525041666603
mp-972536,Sm2TlAg,-0.32710896125000305
mp-972882,Sc2CdAg,-0.28327863624999905
mp-973442,Lu2AgPt,-0.91120927708333
mp-973653,Lu2ZnAg,-0.37562163083333205
mp-973956,Lu2CdAg,-0.34641017958333004
mp-973957,La2ZnAg,-0.287038007500001
mp-973964,Lu2GaAg,-0.52546614958333
mp-974387,Nd2AgHg,-0.41505135187500003
mp-974744,NdZn2Ag,-0.29059854229166504
mp-975788,Pr2AgHg,-0.354060134375
mp-976341,Nd2ZnAg,-0.277327844166665
mp-977358,Ho2AgIr,-0.622223012916663
mp-977387,TbAgHg2,-0.339733660833332
mp-977404,Nd2AgIr,-0.524585854912039
mp-977416,Er2AgIr,-0.6483532254166651
mp-978083,Pr2ZnAg,-0.260080206249999
mp-978085,Pr2TlAg,-0.307970379583333
mp-978100,Pr2InAg,-0.353992265416664
mp-978545,Sm2AgHg,-0.431318780624998
mp-978891,Sm2InAg,-0.465502733749999
mp-979057,Sm2ZnAg,-0.29522589791666504
mp-979176,Tm2AgHg,-0.46825434062500104
mp-979270,Tb2AgIr,-0.5895928137499981
mp-979961,Yb2AgHg,-0.48437973062500106
mp-979989,Yb2AgPd,-0.6740214587499971
mp-982010,Pr2CdAg,-0.254516923749997
mp-982393,Pm2ZnAg,-0.308341131250003
mp-982615,Pm2InAg,-0.465665762500002
mp-982929,Pm2AgRh,-0.515014192499997
mp-983566,Ca2AgGe,-0.5064037787500001
mp-983598,Ca2AgBi,-0.728312803333341
mp-984704,CaAgHg2,-0.346949062500002
mp-984720,Ba2AgSb,-0.7695271354166651
mp-1214924,AgSbO12,0.5600413391666661
mp-1238827,Cr2AgS4,-0.8334234516666661
mp-20118,Cr2AgTe4,-0.44519081690476303
mp-540872,AgSbO3,-1.444474670333332
mp-542681,Na3In2Ag,-0.191838028749998
mp-776168,AgRuO3,-0.9938485823333331
mp-1208448,Tb4Ga12Ag,-0.5180501010784281
mp-1203481,NbAgO3,-2.179120357083332
mp-779664,AgGeO3,-1.335860173333333
mp-1246010,Li2AgN,-0.12920629562499902
mp-27384,AgIO3,-0.713068665333332
mp-558950,AgAsO3,-1.243945944583333
mp-1195485,AgI3O8,-0.7526461278472221
mp-685618,FeAgTe2,-0.050970769374999
mp-753277,LiAgF2,-2.104387041666667
mp-1105293,GaAgO2,-1.514505557916666
mp-1194753,AgB3O5,-2.4009590843518502
mp-1268195,InAgSe2,-0.521890172031248
mp-21459,InAgS2,-0.558551787656249
mp-752882,LiAgF2,-2.104754218541666
mp-760817,Li2AgF4,-2.295518080952384
mp-1245460,AgGe2N3,0.019035748055555003
mp-1246476,Si2AgN3,-0.8265380588888881
mp-561242,TaAgS3,-0.9553398292999981
mp-1205967,Sm2AgGe6,-0.339370590185185
mp-1206886,Ce2AgGe6,-0.316968543518517
mp-1227320,Ca2GaAg,-0.36350813124999803
mp-1399321,CsAgBr3,-1.237065829264368
mp-1197880,ErAgS2,-1.5575892019791642
mp-1199297,HoAgS2,-1.5655210685416612
mp-1200233,DyAgS2,-1.564351824583331
mp-1200242,GdAgS2,-1.578461152604164
mp-1205094,SmAgS2,-1.5576359901041652
mp-1207671,YAgS2,-1.557863875104165
mp-1208047,TmAgS2,-1.526427430000001
mp-1208370,TbAgS2,-1.565494165833331
mp-686712,InAgSe2,-0.42096476578124903
mp-1077578,CeGaAg,-0.407685988055553
mp-1220352,Nd2Si3Ag,-0.70025710583333
mp-5770,AgNO2,-0.49077906666666504
mp-1208999,ScAgSn,-0.49075916333333003
mp-1229205,Ag(OsO3)2,-1.2330770879629631
mp-1392664,HoAgSe2,-1.392601386588539
mp-29672,AgC4N3,0.34951613729166503
mp-676410,LuAgS2,-1.5011938255729151
mp-2349989,NbAgO3,-2.151860956333333
mp-996966,KAgO2,-0.9949358772291651
mp-996988,LiAgO2,-1.057934106249999
mp-997039,AgPdO2,-0.625580041666666
mp-997084,RbAgO2,-0.9608348172916661
mp-1224092,In5AgSe8,-0.6458184969642871
mp-1224268,In5AgTe8,-0.436434391785715
mp-600237,Ag(CO)2,-0.6242780280833331
mp-752767,LiAgF2,-2.131456420416667
mp-860791,AgSbO3,-1.384051318
mp-996960,AgNO2,-0.49782944291666603
mp-997022,AgAsO2,-1.157919233541666
mp-759939,AgGeO3,-1.309913022333333
mp-891854,AgGeO3,-1.335310217333333
mp-996964,CdAgO2,-0.8645121154166661
mp-997085,SrAgO2,-1.824237780416666
mp-1095574,CeGaAg,-0.309601916388887
mp-569052,AgSe3I,-0.17101233173958202
mp-570431,AgTe3I,-0.16816866833333202
mp-996997,LiAgO2,-1.099839199999999
mp-22959,AgClO2,-0.22877552479166602
mp-891880,AgGeO3,-1.337641750708333
mp-1182693,CeAgAs2,-0.7735154701041661
mp-1198391,LaAgAs2,-0.8253020401041661
mp-1223379,LaAgAs2,-0.6684983966666671
mp-5537,NbAgO3,-2.180191696583333
mp-672195,CeAgAs2,-0.7736517529166661
mp-1192809,Ag(NO)3,1.070804999404761
mp-1239173,Cr2AgS4,-0.766871002738094
mp-849326,Ta3AgO8,-2.944413424888887
mp-1218056,Ta4AgS8,-1.274723334692304
mp-1232705,CrAgS2,-0.726635320416664
mp-998201,RbAgCl3,-1.418798929833333
mp-998344,CsAgBr3,-1.237046035264368
mp-559803,AgBO2,-1.8833510627864571
mp-752460,LiAgF4,-1.8638333536111111
mp-1202188,AgIO3,-0.7021254153333331
mp-1245369,NbAgN2,-0.384931656166667
mp-1246632,TaAgN2,-0.568540207302078
mp-638686,AgNO3,-0.678284162833332
mp-644729,AgN3O4,-0.31213882208333305
mp-769355,AgH3O2,-0.94354993861111
mp-1095594,TlAgS,-0.34562166250000104
mp-11214,CaAgSb,-0.757239733055554
mp-1179404,SmAgAs2,-0.899050113124999
mp-1180484,MnAgO4,-0.834450715349615
mp-1183026,AgC2N3,1.1184596805555551
mp-1186868,TbAgAs2,-0.7471907358333321
mp-1190886,Cs2AgCl3,-1.662833654583333
mp-1191267,AgClO4,-0.388566393194444
mp-1200102,CaAgGe,-0.5310732250000001
mp-12021,AgBF4,-2.469788318333332
mp-1205357,KAgF3,-2.113634538783331
mp-1207558,YbGa2Ag,-0.529884916875001