material_id,formula,formation_energy_per_atom
mp-1247067,Mg2Ti3AlS8,-1.5580615785714271
mp-1247173,Mg2Mn3AlS8,-1.13510726098522
mp-1247454,Mg2AlV3S8,-1.308539979285712
mp-15549,K2LiAlF6,-3.464304959283333
mp-23774,K2LiAlH6,-0.37090790253333306
mp-6528,Cs2NaAlF6,-3.407736822568965
mp-770341,Li4AlCr3O8,-2.567891970833333
mp-972937,ScAlCO,-1.86734136375
mp-23743,AlH12(ClO2)3,-1.475989831363636
mp-667374,NaAlSiO4,-3.139978959720853
mp-1190648,Y3MnAlS7,-1.888292521702586
mp-1190721,Nd3AlFeS7,-1.854139825416666
mp-1190730,Nd3AlCoS7,-1.789303927758683
mp-1190741,Y3AlNiS7,-1.829692037708332
mp-1190786,Pr3AlCoS7,-1.7853837058003492
mp-1190789,Gd3MgAlS7,-2.052805180624999
mp-1190945,La3MgAlS7,-2.152292645208333
mp-1191008,Y3AlFeS7,-1.834768400624999
mp-1191013,Gd3MnAlS7,-1.912832915869252
mp-1191125,La3AlCoS7,-1.938071586875
mp-1191233,Sm3AlFeS7,-1.852792534374999
mp-1191235,Dy3MnAlS7,-1.851694763369251
mp-1191294,La3TiAlS7,-2.131615750069445
mp-1191432,Ce3AlCdS7,-1.856575441848965
mp-1191443,La3AlCdS7,-1.983620872708333
mp-1191447,Pr3AlNiS7,-1.842084883124998
mp-1191486,Pr3AlFeS7,-1.847838409791666
mp-1191595,Dy3AlCoS7,-1.8380609643749972
mp-1191639,Y3AlCoS7,-1.828321698124999
mp-1191776,La3AlNiS7,-1.937880884791666
mp-1191872,La3AlZnS7,-2.010336966458333
mp-1191886,Sm3AlCoS7,-1.8481198502083331
mp-1191911,Dy3AlFeS7,-1.835450893541664
mp-1192025,La3BeAlS7,-2.025042674791667
mp-1192190,Gd3AlVS7,-1.9795228143749992
mp-1192219,Gd3AlZnS7,-1.847556420420382
mp-1192254,Tb3AlFeS7,-1.8344614052083321
mp-1192315,La3AlFeS7,-1.9504871214583321
mp-1192334,Sm3AlNiS7,-1.849740185624999
mp-1192418,Dy3AlNiS7,-1.8416697285416652
mp-1192574,Gd3AlCdS7,-1.8148823141406272
mp-1192897,Ce3AlZnS7,-1.866113575208331
mp-1192925,Ce3AlFeS7,-1.9126884864583311
mp-1192994,Ce3AlVS7,-1.913115488541664
mp-1193048,Ce3TiAlS7,-2.020785270902777
mp-1198056,NaAlSiO4,-3.13281957341133
mp-1211351,La3BeAlS7,-1.997163926041666
mp-649722,NaAlSiO4,-2.322547988589901
mp-651024,KAlGeO4,-2.674596079547619
mp-680374,KAlSiO4,-3.186058913535714
mp-8355,KAlSiO4,-3.183893003178571
mp-861904,La3AlCrS7,-2.005301981875
mp-864652,Nd3MnAlS7,-1.917803520660918
mp-866500,Ce3MnAlS7,-1.884728052952585
mp-866516,Ce3AlCrS7,-1.8346155514583322
mp-866517,Ce3MgAlS7,-2.015563410208331
mp-866692,La3MnAlS7,-2.015772447535919
mp-867323,Pr3MnAlS7,-1.914964015869252
mp-867965,Sm3MnAlS7,-1.915864724202585
mp-867967,La3AlVS7,-2.070915734374999
mp-975614,Nd3AlNiS7,-1.8454560083333322
mp-1222444,LiAlSiO4,-3.20280941952381
mp-14399,LiAlSiO4,-3.203794858928572
mp-558713,LiAlSiO4,-3.190973626190476
mp-754647,LiAlVO4,-2.758221474285714
mp-6326,LiAlSiO4,-3.204281977976191
mp-6327,LiAlSiO4,-3.202781104285715
mp-8315,LiSmAlF6,-3.602553942438272
mp-1048108,BaTi4AlO7,-2.940419334871794
mp-1048141,BaAlCu4O7,-1.628771140769231
mp-1048159,BaAlSn4O7,-1.98196693076923
mp-1048345,BaAlV4O7,-2.30299611923077
mp-1048359,BaAlFe4O7,-1.974541401923077
mp-1048382,BaAlCo4O7,-1.900414839615385
mp-1048397,BaAlNi4O7,-1.6918851496153842
mp-1048423,BaAlW4O7,-1.4243715892307671
mp-1048458,BaMn4AlO7,-2.285699286671086
mp-1048544,BaAlCr4O7,-2.107621928076923
mp-1080747,ScAlCO,-1.8828658962500011
mp-1190339,Na3Ca3AlSb4,-0.7731935399216291
mp-15572,Na3Ca3AlAs4,-0.8518214808307201
mp-41095,Na3Sr3AlP4,-0.8192449788826681
mp-1222882,LaMnAlNi3,-0.355880012155173
mp-1222984,LaAlCuNi3,-0.389854780833333
mp-1228967,AlCr4GaC2,-0.1504028321875
mp-1663521,LiAlCrO4,-2.599847065833333
mp-16934,BaLaAlO4,-3.516998215357143
mp-541900,AlH15(NF)6,-1.182794332008928
mp-559984,Rb8AlAu3O4,-1.310884286406249
mp-722903,K2LiAlF6,-1.186672298783333
mp-1079691,CeAlH2Ir,-0.646162232499999
mp-1197979,Ti12AlSi3C8,-0.7916247149999991
mp-17120,Cs6K3AlSb4,-0.46527983390578803
mp-541707,K6Na3AlSb4,-0.48313343233128003
mp-556282,Ba2AlInO5,-2.872980514907408
mp-559737,Rb2Tb3AlF16,-3.726078045681818
mp-561413,Rb2Tb3AlF16,-3.641576159772727
mp-1181876,LaAl(NO4)6,-0.6779014010937501
mp-8351,NaAlSiO4,-3.135628220911329
mp-1041771,AlTe(WO4)2,-2.071869630555555
mp-1045892,AlCu3(WO3)4,-1.5506729815
mp-1047109,AlCu(WO4)2,-2.131150751666666
mp-1047169,AlAg(WO4)2,-2.038718333472221
mp-1047301,AlV(WO4)2,-2.331046078333333
mp-1047448,AlNi(WO4)2,-2.065955919999999
mp-1102410,Ca2AlClO8,-1.195528340833333
mp-1176812,LiAlFeO3,-2.460678407222222
mp-1177725,Li3Al(FeO3)2,-2.281375065
mp-1182082,CaAl(OF2)2,-2.814882054374999
mp-1191319,Na2Al(P2O7)2,-2.483077067682382
mp-1192837,AlSb5Se5Cl4,-0.959989346781249
mp-1193801,Ca2AlPbF9,-3.766335151538461
mp-1194909,AlSb2(SeCl2)2,-1.3013409741319442
mp-1198052,AlP2H2O9,-2.03375573215136
mp-1211159,LiAlPO5,-2.728732819747024
mp-1214299,CaAlFe3O7,-2.322256257812499
mp-1219605,RbAlSi3O8,-3.244703725961538
mp-1220859,NaAlSi3O8,-3.205890630875331
mp-1222571,LiAlSi3O8,-3.211568511025641
mp-1223636,KAlSi3O8,-3.240757970942307
mp-1228177,AlTlSi3O8,-3.082131854102565
mp-1228941,AlSi3AgO8,-2.950511368205127
mp-1229104,AlH15(OF)6,-1.789116337455357
mp-1252502,AlCo(WO4)2,-2.254103944999999
mp-1254079,MnAl(WO4)2,-2.385774121494252
mp-1276282,Li2AlCoO4,-2.353540319895833
mp-1330351,Li4AlCr3O8,-1.503608682395833
mp-1337071,AlSi3AgO8,4.347514791794872
mp-1344789,LiAlSi3O8,1.3826574535897431
mp-1392021,AlTe(WO4)2,-0.776262420555555
mp-1426051,NaAlSi3O8,4.010871613740052
mp-1581389,AlCr(WO4)2,-2.435835594166667
mp-19209,LiAl(MoO4)2,-2.351329154027778
mp-554344,Li3Al(BO3)2,-2.7644691115277773
mp-554967,Li3Al(BO3)2,-2.836621962777778
mp-556418,AlSCl3O2,-1.831841661071428
mp-556630,RbAlAs2O7,-2.213547571590915
mp-567743,AlSb2(TeCl2)2,-1.230065133148147
mp-567975,AlPNCl5,-1.4548394980803572
mp-607454,AlC3(NCl2)3,-0.8094090671153841
mp-6097,Li3Al(BO3)2,-2.848371881527777
mp-695979,AlH18(BrO6)3,-0.8150461189375
mp-697670,KAlSi3O8,-3.244951727480768
mp-721988,NaAlSi3O8,-3.21218744587533
mp-734814,NaAlSi3O8,0.993320017586206
mp-754284,LiAlNiO3,-2.380168923888888
mp-755460,Li2AlVO4,-2.763732589375
mp-755500,Li4AlCr3O8,-2.570609750520833
mp-755509,LiMnAlO3,-2.642455379377394
mp-755925,LiAlCoO3,-2.421755444722221
mp-756015,LiAlFeO3,-2.5065676326388893
mp-768694,Li4AlCr3O8,-2.564035732083333
mp-768749,Li4AlCr3O8,-2.564403658958332
mp-768808,Li4AlCr3O8,-2.564154748958334
mp-768851,Li4AlCr3O8,-2.564045499583333
mp-770544,LiAlCrO3,-2.606142341388889
mp-803574,Li4AlCr3O8,-1.118818985833333
mp-9230,KAlAs2O7,-2.218596720204545
mp-1223598,KAl(SiO3)2,-3.197898241725
mp-1224633,K2AlB5O14,-1.865626417969696
mp-696221,KAl(H2N)4,-0.10186360169643101
mp-755427,Li2AlNiO4,-2.205122850520833
mp-755694,Li2AlVO4,-2.635376785833333
mp-755803,Li2AlFeO4,-2.490791627083333
mp-756520,Li2AlCoO4,-2.338080508958334
mp-1045600,Ti4Al(CuO4)3,-2.467450898166666
mp-1045607,AlCu3(AgO3)4,-0.5767818933333331
mp-1045632,AlCu3(SnO3)4,-1.568363606999998
mp-1045633,AlCu3(SbO3)4,-1.3813376725
mp-1045637,AlCu3(BiO3)4,-1.191484936000001
mp-1045721,AlCr4(CuO4)3,-1.7138932385000012
mp-1045723,AlCo4(CuO4)3,-1.132933414
mp-1045728,AlFe4(CuO4)3,-1.320949402
mp-1045744,Mn4Al(CuO4)3,-1.534255570086208
mp-1045851,AlCu3(MoO3)4,-1.556199553999999
mp-1379838,AlV4(CuO4)3,-1.834674288
mp-1180545,NaAl(SO10)2,-0.24101330745330402
mp-1181191,KAl(SO10)2,-0.623168898947916
mp-1182920,AlS2NO20,-0.27668942291666604
mp-1196384,KAl(SO10)2,-0.183015030197916
mp-1205042,KAl(SO7)2,0.402588587236111
mp-1238525,AlS2NO20,-0.286936241979166
mp-795584,RbAl(SO10)2,-0.21239412916666703
mp-1154487,Mn3Al(SiO4)3,-2.554064812041742
mp-1163946,AlCo3(SiO4)3,-2.189463841578946
mp-1250723,AlFe3(SiO4)3,-2.429344390131579
mp-699485,AlH12(NO5)3,-1.292827482258064
mp-1222469,LiAl(SiO3)2,-3.227567057333333
mp-14389,Na3AlP8O23,-2.686165786108023
mp-1179174,SrAlCu3Se4,-0.7534682152777761
mp-1180332,MgAlCu3Se4,-0.6455576093749991
mp-1182176,BaAlCu3Se4,-0.8277034954861101
mp-1182859,AlZnCu3Se4,-0.515781364374999
mp-1182878,AlCdCu3Se4,-0.49729373881944305
mp-1182880,AlCu3HgSe4,-0.2935849050463
mp-1182890,AlCu3PbSe4,-0.38267077263888705
mp-1008530,AlVFeCo,-0.394214064999999
mp-1210055,NaAlSiO5,-2.3778142882974143
mp-1221627,MnAlCuPd,-0.34629439698275805
mp-1221633,MnAlFeCo,-0.24836813198275903
mp-1228960,AlCr4CuS8,-1.048169373571428
mp-1228999,AlCr4AgS8,-1.011209352261903
mp-1229004,AlCr4CuSe8,-0.841807363482142
mp-998980,TiAlFeCo,-0.574893555833333
mp-1079583,Rb2NaAlF6,-3.430538285637931
mp-1110596,Rb2AlAuF6,-2.8644463885
mp-1110614,Rb2AlAgF6,-3.052170508666666
mp-1110621,Na2AlTlF6,-2.977590612499995
mp-1110627,RbNa2AlF6,-3.189408286025862
mp-1111019,KNa2AlF6,-3.2440640750008622
mp-1111045,CsRb2AlF6,-3.354795068465518
mp-1111056,Na2LiAlF6,-3.4068037605
mp-1111082,Na2AlCuF6,-2.902017959604157
mp-1111088,Na2AlAuF6,-2.675296087166669
mp-1111090,Na2AlInF6,-2.968158859458332
mp-1111199,K2AlTlI6,-1.117664807783334
mp-1111253,Na2AlHgF6,-2.776269223874999
mp-1111337,Na2AlAgF6,-2.8812404791249993
mp-1111352,Li2AlHgF6,-2.647429631472228
mp-1111366,Li2AlAgF6,-2.756073626722224
mp-1111379,K2AlTlF6,-3.1662907387833332
mp-1111386,K2RbAlF6,-3.3692481742
mp-1111467,Rb2AlAuCl6,-1.724260328499999
mp-1111472,Rb2AlAgCl6,-1.860683853666666
mp-1111545,Na2AlAgCl6,-1.481905871500001
mp-1111553,NaLi2AlF6,-3.227846432611113
mp-1111586,Na2AlAgBr6,-1.305377246442528
mp-1111590,K2AlTlCl6,-1.919734430783334
mp-1111591,K2AlTlBr6,-1.581349104783334
mp-1111610,K2RbAlI6,-1.259210377199999
mp-1111613,K2RbAlCl6,-2.0999662172
mp-1111617,K2RbAlBr6,-1.7439746852
mp-1111652,K2NaAlCl6,-2.115560732587931
mp-1111667,Na2AlHgCl6,-1.379015431250005
mp-1111683,Li2AlCuF6,-2.7895916756666663
mp-1111710,CsRb2AlCl6,-2.120574464465517
mp-1111722,Rb2AlAuBr6,-1.413173199499999
mp-1111736,Rb2AlAgBr6,-1.525940810666666
mp-1111743,Na2AlHgBr6,-1.250770430525862
mp-1111785,CsRb2AlBr6,-1.7746722194655171
mp-1111797,Rb2AlAuI6,-0.9959750515
mp-1111837,CsRb2AlI6,-1.300768406465517
mp-1111949,K2AlAgF6,-3.045985775616666
mp-1111952,Cs2AlTlF6,-3.200818633264369
mp-1111973,K2AlAgCl6,-1.8324107956166662
mp-1111999,K2AlAuBr6,-1.378608272449999
mp-1112023,K2AlInI6,-1.088126558116666
mp-1112057,CsK2AlI6,-1.248823902415517
mp-1112104,K2AlAgBr6,-1.4915188606166652
mp-1112111,Cs2AlTlI6,-1.2148941062643681
mp-1112133,Cs2RbAlI6,-1.361633925681034
mp-1112165,K2AlCuF6,-3.010690930449999
mp-1112188,K2AlInF6,-3.134881021116666
mp-1112189,K2AlInCl6,-1.881075232116666
mp-1112191,K2AlInBr6,-1.5463761121166661
mp-1112209,K2AlHgF6,-2.9501835187000003
mp-1112210,K2AlHgCl6,-1.7557812327
mp-1112211,K2AlHgBr6,-1.4458031587
mp-1112269,K2AlAuF6,-2.853184825449999
mp-1112319,CsK2AlF6,-3.319671709415517
mp-1112327,CsK2AlCl6,-2.072619832415517
mp-1112328,CsK2AlBr6,-1.724880192415517
mp-1112411,Rb2AlHgF6,-2.967438022750001
mp-1112438,K2AlAuI6,-0.9556192384500001
mp-1112440,K2AlAuCl6,-1.695294581449999
mp-1112505,Cs2AlTlCl6,-2.001432016264369
mp-1112506,Cs2AlTlBr6,-1.670507063264369
mp-1112525,Cs2RbAlCl6,-2.184768013681034
mp-1112531,Cs2RbAlBr6,-1.837406719681034
mp-1112569,Cs2NaAlF6,-3.391905580068965
mp-1112586,Cs2AlInF6,-3.154129284048613
mp-1112616,Cs2AlHgCl6,-1.822616389181035
mp-1112629,Cs2AlHgBr6,-1.522564671181035
mp-1112896,Cs2AlInI6,-1.182273860597701
mp-1112932,Cs2AlAuI6,-1.0337027559310341
mp-1112997,Cs2NaAlCl6,-2.009850319500002
mp-1113048,Cs2RbAlF6,-3.231497278681034
mp-1113057,Cs2KAlI6,-1.364546214656034
mp-1113059,Cs2KAlCl6,-2.194529311656035
mp-1113061,Cs2KAlBr6,-1.843999176656034
mp-1113092,Cs2KAlF6,-3.423887091656034
mp-1113101,Cs2AlHgF6,-2.966533389181035
mp-1113113,Cs2AlAuF6,-2.830555843222217
mp-1113187,Cs2AlCuCl6,-1.628220088374995
mp-1113220,Cs2AlAuCl6,-1.553849828750002
mp-1113280,Cs2AlInCl6,-1.7911140397500032
mp-1113281,Cs2AlInBr6,-1.632791347597701
mp-1113345,Rb2AlHgCl6,-1.7929127677500012
mp-1113424,Cs2AlAuBr6,-1.439757383931034
mp-1113563,Rb2AlHgBr6,-1.48622114375
mp-1113577,Cs2AlAgBr6,-1.552463265097701
mp-1113614,Cs2AlAgF6,-3.0340755550977
mp-1113621,Cs2AlAgCl6,-1.7016005875000042
mp-1113654,Rb2AlTlF6,-3.190875712833334
mp-1113747,Rb2LiAlF6,-3.423521409833333
mp-1113768,KRb2AlF6,-3.425986403225
mp-1113775,Rb2AlInF6,-3.154693985166666
mp-1113818,Rb2AlCuF6,-2.9932984475
mp-1113929,Rb2NaAlCl6,-2.144124522637931
mp-1113984,KRb2AlCl6,-2.160005042224999
mp-1114008,Rb2AlTlCl6,-1.9625217438333342
mp-1114010,Rb2AlTlBr6,-1.626584340833333
mp-1114046,KRb2AlBr6,-1.802056757225
mp-1114075,Rb2AlInBr6,-1.5905447561666661
mp-1114076,Rb2AlInCl6,-1.9227813101666662
mp-1114117,Rb2AlTlI6,-1.165555580833334
mp-1114138,Rb2AlInI6,-1.134806658166666
mp-1114183,KRb2AlI6,-1.314958142224999
mp-1205594,Sr2TaAlO6,-3.485361415733332
mp-1205947,Eu2TaAlO6,-3.442870456733334
mp-1206057,Sr2NbAlO6,-3.366576727999999
mp-1208835,Sr2AlSbO6,-2.927464959999999
mp-1518543,Sr2AlBiO6,-2.628096826999999
mp-24411,K2LiAlH6,-0.361688527533333
mp-24412,K2NaAlH6,-0.34407027
mp-644092,Na2LiAlH6,-0.31283416035919404
mp-6586,K2NaAlF6,-3.44334859958793
mp-9839,K2LiAlF6,-3.462772290783333
mp-989528,Rb2AlInH6,-0.166062167916665
mp-989535,Cs2AlInH6,-0.17249546234770102
mp-1247899,Al2O3,-3.330625465
mp-1247914,Al2O3,-3.333673208000001
mp-1938,Al2O3,-3.333195094499999
mp-776490,Al2O3,-3.38020343125
mp-642363,Al2O3,-3.146101382
mp-11809,TiAl2,-0.46964996222222105
mp-10910,Al2Ru,-0.7811005950000001
mp-22318,SrAl2,-0.285075443333332
mp-1247845,Al2O3,-2.3327416178
mp-32591,Al2O3,-3.369453909125
mp-11674,Al2Se3,-1.0088235364375011
mp-1228491,Al2S3,-1.236956223687499
mp-1228524,Al2Te3,-0.544076061000001
mp-1103547,Al2Si2O9,-2.5166571119230783
mp-1194176,Al2Si2O9,-2.244686795
mp-1238781,La4Al2O9,-3.615991895666668
mp-1262001,Al2Mo2O7,-2.326478674545453
mp-1266390,Al2W2O7,-2.362451891818182
mp-1336298,Al2Hg5Se8,-0.311859704666657
mp-1393463,Mg(AlH4)2,-0.130533350454546
mp-531459,MgAl2O4,-3.319277007346937
mp-531611,Mg(AlB14)2,-0.094887193924735
mp-532510,Al2NiO4,-2.636834274693876
mp-673834,Mg5(AlSe4)2,-1.075084721083333
mp-685952,Al2Hg5Se8,-0.486445836666659
mp-696076,Sr(AlS2)2,-1.7419732824999992
mp-731939,Al2Si2O7,-3.067636585454545
mp-1221904,Mn2Al2Cu,-0.019522639172414
mp-1188296,U3Al2Si3,-0.27253679743750303
mp-1207666,U3Al2Ge3,-0.299369165406254
mp-1285355,Al2NiO4,-2.779677814285715
mp-1265053,Mn3Al2F15,-3.067788531689655
mp-28267,Na7Al2Sb5,-0.5148967314285721
mp-28347,K3Al2As3,-0.5576802861562501
mp-558636,CaAl2O4,-3.436829927142855
mp-1215331,ZrAl2Si,-0.47916152500000003
mp-1048148,Al2(CuO2)3,-1.7556627227272732
mp-1105677,Al2PO7,-2.444716837464285
mp-1106178,Al2VO7,-2.2703472975
mp-1214939,Al2(FeO3)3,-1.852280935714286
mp-1222208,Mg3(AlCu2)2,-0.20759573111111101
mp-1225632,Er6Al2Ge7,-0.7149729783333321
mp-1248317,Al2Co2O7,-1.9050070495454552
mp-1262197,Al2Cr2O7,-2.293376494999999
mp-1265576,Al2Fe3F15,-2.9399847017500003
mp-15397,Ti7Al2O15,-3.3946253211805573
mp-29987,La3(AlI)2,-0.9780103021428581
mp-530722,MgAl2O4,-3.362312704285714
mp-531674,Al2FeO4,-2.881206051122449
mp-570390,Ba5Al2Ge7,-0.527330480714285
mp-571216,Sr3(AlGe2)2,-0.500196733333332
mp-636773,Ce3(AlI)2,-0.791197818571427
mp-1025315,Mn(AlTe2)2,-0.5934244120853861
mp-1257684,Al2(CuSe2)3,-0.507529971761365
mp-1264825,Al2(CuS2)3,-0.6377375993087111
mp-1183257,Al2Tc2O5,-1.799650814999999
mp-1185757,Mg2Al2O5,-2.899986565
mp-1187886,Yb2Al2O5,-3.192617111527778
mp-1215329,ZrAl2Zn,-0.519380847499999
mp-1217009,TiAl2Zn,-0.38783133833333305
mp-1217015,TiAl2V,-0.34388396791666703
mp-1218003,TaAl2Ni9,-0.41376438477777505
mp-1219830,Pr3MgAl2,-0.250251334999999
mp-1220476,NbAl2Ni9,-0.40934338416666505
mp-1221642,MnAl2Co,-0.43045526448275806
mp-1221656,MnAl2Ni,-0.468009194482758
mp-1221660,MnAl2Cu,-0.24584263198275802
mp-1224303,HfAl2Zn,-0.42217012125000103
mp-1228426,Al2NiPt,-0.7931768599999991
mp-1228540,Al2VNi9,-0.375922756666665
mp-1228554,Al2Ni9Pd,-0.2635349175
mp-1228905,Al2FeCo,-0.46761120000000006
mp-1228908,Al2CoRu,-0.6305699662500001
mp-1228910,Al2FeNi,-0.5236166949999991
mp-1228913,Al2CoNi,-0.625177445
mp-1400159,Al2(BiO3)3,-1.8613924189285722
mp-861959,Eu2Al2O5,-3.267851706111113
mp-28505,Ba(AlTe2)2,-1.140490400238092
mp-557737,Al2BiS4,-1.026826849464285
mp-571623,Al2BiSe4,-0.8726628287500011
mp-1078340,Ce(AlPd)2,-0.8410899446666541
mp-1078533,Th(AlAu)2,-0.709222360000003
mp-1078787,Sm(AlAu)2,-0.7379393630000001
mp-1078833,Tb(AlAu)2,-0.715287821333335
mp-1078886,Ce(AlAu)2,-0.6961185989999961
mp-1078947,Nd(AlAu)2,-0.7472108595000001
mp-1079278,Sr(AlAu)2,-0.6513960159999991
mp-1079764,La(AlPd)2,-0.8989257879999961
mp-1080079,U(AlAu)2,-0.450530465999997
mp-1091396,Pr(AlAu)2,-0.746220310333332
mp-13485,Eu(AlAu)2,-0.677896774000002
mp-1205208,Al2Cr4O19,-1.3456281894
mp-30022,Eu(AlCl4)2,-1.99547672590909
mp-30023,Ba(AlCl4)2,-2.295567081363635
mp-569569,Sm(AlCl4)2,-1.798463431515144
mp-628726,Sr(AlCl4)2,-2.263419876363636
mp-1025445,CeAl2Pd5,-0.888538368750001
mp-1025564,LuAl2Pd5,-0.9747068145833321
mp-1078938,YAl2Pd5,-0.961729569999999
mp-1091385,PuAl2Pd5,-0.47149175609374705
mp-11846,Pr(AlZn)2,-0.44183475033333103
mp-1198518,Er11(AlGe4)2,-0.801670315476189
mp-1207061,Ba(AlGa)2,-0.37513931499999903
mp-1207102,Sr(AlGa)2,-0.427401027999999
mp-1212916,Eu3Al2O7,-3.384109503333332
mp-1214869,Al2CuMo,-0.147022517470237
mp-1225559,Eu(AlZn)2,-0.336446937
mp-12863,Ba(AlSi)2,-0.263387342999998
mp-20867,Eu(AlGa)2,-0.489557803000002
mp-20872,Sr(AlPb)2,-0.126218783999996
mp-21931,Sc11(AlGe4)2,-0.8124502209523801
mp-30175,Ca(AlZn)2,-0.28946907599999905
mp-31059,Ba(AlGe)2,-0.39085612900000005
mp-3286,Ce(AlZn)2,-0.38204573599999303
mp-3303,Ce(AlGa)2,-0.503096841999999
mp-561337,Al2W5O16,-2.268952497826087
mp-567317,Nd(AlGa)2,-0.510554783499998
mp-569227,NpAl2Pd5,-0.834826847343748
mp-569657,Sm(AlZn)2,-0.434062123000002
mp-569696,La(AlGa)2,-0.5552614609999971
mp-569698,UAl2Pd5,-0.789720110624998
mp-569713,La(AlZn)2,-0.5104191409999991
mp-570255,Pr(AlGa)2,-0.512696226333332
mp-573498,Yb(AlGa)2,-0.37132920699999905
mp-9690,Ca(AlGa)2,-0.40727522600000005
mp-1096905,Ce4Al2O9,-3.6608190444999993
mp-1200490,Tb4Al2O9,-3.818433524444445
mp-1208108,Tm4Al2O9,-3.864984906000002
mp-1208969,Sm4Al2O9,-3.757058576000003
mp-1212327,Ho4Al2O9,-3.8353084804999993
mp-1212993,Dy4Al2O9,-3.82728168861111
mp-1214099,Ca(AlH4)2,-0.234409156136364
mp-1214880,Al2Te4O11,-2.055871438333333
mp-14600,CaAl2O4,-3.452869487142857
mp-14941,Al2Pb3F12,-3.187346978088234
mp-17473,Na2Al2As3,-0.6375267442857141
mp-17886,K2Al2Sb3,-0.491017206071429
mp-23434,Al2CuCl8,-1.4039510040909091
mp-27346,Al2Hg3Cl8,-1.26388935826923
mp-27452,Al2PdCl8,-1.371736569545455
mp-2963,CaAl2O4,-3.4544079598809523
mp-30039,Na2Al2Sb3,-0.397485729464284
mp-30978,KAl2Br7,-1.668605400974999
mp-540629,Al2Te2Cl7,-1.32282830340909
mp-5409,Y4Al2O9,-3.793649751833334
mp-542093,Al2(WO4)3,-2.494467935441175
mp-559796,Al2(MoO4)3,-2.403088868235294
mp-560927,Y4Al2O9,-3.7907077783333323
mp-561084,Nd4Al2O9,-3.7161393765
mp-570505,Ca3(AlN2)2,-1.36630760861111
mp-570951,Ti(AlCl4)2,-1.663658449630317
mp-582606,Eu4Al2O9,-3.263056390666669
mp-778430,K8Al2O7,-2.046208308411764
mp-780406,Lu4Al2O9,-3.874866770944445
mp-780409,La4Al2O9,-3.7910096510000013
mp-780420,Lu4Al2O9,-3.878700977277778
mp-781707,La4Al2O9,-3.7910376603333322
mp-973410,NdAl2Cu9,-0.202786126041668
mp-569869,Sr(AlCl4)2,-2.270231611363636
mp-570703,Ca(AlCl4)2,-1.971750738181818
mp-1182608,Ce5Al2Ru3,-0.46760437399999805
mp-1228987,Al2(ZnS2)3,-1.083664459845778
mp-1214193,Ca(AlH4)2,-0.23740585411616102
mp-4417,Al2(SO4)3,-2.3349570783823532
mp-756970,Al2(SeO4)3,-1.760841893943015
mp-1189098,Eu3(AlAs2)2,-0.953284135555557
mp-1189305,Sr3(AlAs2)2,-1.154644779999999
mp-1205337,Ca3(AlP2)2,-1.176275938544974
mp-1205338,Ca3(AlAs2)2,-1.143821291666667
mp-1205409,Eu3(AlP2)2,-1.192233544656084
mp-1213962,CaAl2F8,-3.8948070890909063
mp-1246018,Al2Zn3N4,-0.6048484402777751
mp-1246198,Al2Cd3N4,-0.36884212805555505
mp-1246676,Mg3(AlN2)2,-1.091953777222222
mp-1246757,Al2Pb3N4,-0.420965296944444
mp-28304,Ca3(AlAs2)2,-1.025867160000001
mp-540759,Al2CoCl8,-1.420575360909091
mp-541826,Ti(AlBr4)2,-1.49632209530303
mp-542463,Mg(AlCl4)2,-2.060351162727271
mp-568443,Al2VCl8,-1.6701747172727281
mp-570258,Ca3(AlN2)2,-1.3619095016666671
mp-574112,Ti(AlCl4)2,-1.663294610084862
mp-605912,Al2NiCl8,-1.48517698590909
mp-755043,Al2Si2O7,-3.325532635909091
mp-756318,Al2CoCl8,-1.418629774090909
mp-773505,Al2CrO5,-2.876227499375
mp-9515,Al2SiO5,-3.274981406875