material_id,formula,formation_energy_per_atom
mp-1216079,YAlCo,-0.342381689166667
mp-1216089,YAlNi,-0.488974529999998
mp-1216127,YAlNi,-0.5111377155555551
mp-1216326,UAlFe,-0.130590174999997
mp-1216421,UAlCo,-0.19740274166666902
mp-1216442,UAlFe,-0.152803841666663
mp-1216664,TmAlFe,-0.32171941666666803
mp-1216694,TmAlFe,-0.330768027499999
mp-1216791,TmAlCo,-0.401778454166669
mp-1216813,TmAlNi,-0.5432515075000021
mp-1216913,TiMnAl,-0.30310408375479003
mp-1216953,UMnAl,-0.07525264681034201
mp-1216999,UMnAl,-0.086807071810342
mp-1217076,Ti2AlGe3,-0.462836321944442
mp-1217084,TiAlNi,-0.48874507444444304
mp-1217088,TiAlCr,-0.20664084972221902
mp-1217089,Ti2AlSi3,-0.546692739722221
mp-1217171,TiAlFe,-0.368005260277777
mp-1217214,TiAlCu,-0.329200258055556
mp-1217598,TbAlFe,-0.27563806555555403
mp-1217601,TbAlNi,-0.501867013888887
mp-1217609,TbAlFe,-0.27846932888888704
mp-1217612,TbAlNi,-0.48862665472222105
mp-1217995,TaAlZn,-0.317994796611112
mp-1218064,TaAlFe,-0.32248848661111
mp-1218074,TaAlCu,-0.278336006611108
mp-1218096,TaAlCu,-0.293247576611108
mp-1218116,TaAlNi,-0.44482031211110906
mp-1219102,SmAlFe,-0.22260943333333302
mp-1219123,SmAlFe,-0.22041786499999902
mp-1219133,SmAlNi,-0.45558929083333205
mp-1219141,SmAlNi,-0.45718667416666603
mp-1219356,ScAlCu,-0.43409759404762305
mp-1219358,ScAlFe,-0.39449159249999605
mp-1219369,ScAlNi,-0.592524805833332
mp-1219393,ScAlCo,-0.4445849425
mp-1219806,PuMnAl,0.059327355272992
mp-1219827,PuAlFe,0.51033139541667
mp-1219910,Pr2AlSi,-0.563098810833331
mp-1220408,NbAlZn,-0.314987010833333
mp-1220482,NbAlCr,-0.224308016466667
mp-1220484,NbAlCu,-0.337507922499999
mp-1220492,NbAlCo,-0.3676639575
mp-1220500,NbAlNi,-0.428020141666666
mp-1220549,NbAlFe,-0.31784351666666605
mp-1222060,MgAlAg,-0.128983991388888
mp-1222218,Mg4AlZn11,0.057260368124999
mp-1222387,LuAlFe,-0.339592635555555
mp-1222417,LuAlCo,-0.42203051222222204
mp-1222488,LuAlFe,-0.34934491722222305
mp-1223252,La2AlGe,-0.7557043374999991
mp-1223834,Hf2AlSi,-0.675570720625003
mp-1223944,HoAlFe,-0.29604671833333
mp-1224022,HoAlFe,-0.302426583333331
mp-1224090,HoAlCo,-0.37194344083333103
mp-1224133,HoAlNi,-0.5204953266666631
mp-1224159,HoAlNi,-0.513954179999997
mp-1224385,HfAlPd,-0.6945272823148181
mp-1224402,HfAlMo,-0.360414124166666
mp-1224426,HfAlIr,-0.8096724524999991
mp-1224464,Hf3AlGe5,-0.438196397777779
mp-1224466,HfAlCr,-0.28419620083332503
mp-1224481,HfAlCu,-0.332944006666666
mp-1224488,HfAlFe,-0.40047040166666603
mp-1224494,HfAlRh,-0.8745853923250211
mp-1224495,HfMnAl,-0.357374708477012
mp-1224502,HfAlCo,-0.48272120833333304
mp-1224642,HfAlFe,-0.421816667499996
mp-1225079,Er2AlGe4,-0.42469373142857003
mp-1225347,DyAlFe,-0.29007199972222003
mp-1225382,DyAlNi,-0.510499318055553
mp-1225397,DyAlNi,-0.5065157505555531
mp-1225470,DyAlCo,-0.358501916388887
mp-1225622,ErAlFe,-0.31253132166666403
mp-1225649,ErAlFe,-0.320258999999996
mp-1225659,ErAlNi,-0.5358561874999981
mp-1225728,ErAlCo,-0.39114892583333205
mp-1225729,ErAlNi,-0.527876786666665
mp-1226764,CeAlRu,-0.483595738333332
mp-1226824,CeAlCo,-0.378313114166665
mp-1228974,AlVCo,-0.11077845333333101
mp-1229047,AlCoW,-0.179744804999998
mp-1248475,CsMg6Al,0.243981847543103
mp-675254,AlPO4,-3.108898599662696
mp-1228043,AlSiNi2,-0.573069827499999
mp-1228240,AlSi3O8,-3.066069738749999
mp-1247827,AlHO2,0.38261442718749905
mp-1261047,AlSbO3,-2.527291851499999
mp-23719,BeAlH5,-0.134761895892857
mp-27755,KAlCl4,-2.164828218708333
mp-27935,AlICl6,-1.32499238
mp-555846,BaAlF5,-4.035548594285713
mp-558056,AlPO4,-3.109775057107143
mp-5724,AlPO4,-3.119648467440476
mp-626074,Al(HO)3,-2.022643648571428
mp-626631,Al(HO)3,-1.976152803571428
mvc-11882,Al(CuO2)3,-0.851528898499999
mp-1228673,AlSi9Ni16,-0.516726196987183
mp-675771,AlPO4,-2.791094819107143
mp-1223261,La2AlGe3,-0.7672136845909081
mp-2014966,Al(VS2)4,-1.1765090717307691
mp-1019510,AlPO4,-3.109963765877976
mp-1214215,Ca11AlSb9,-1.060504777142854
mp-557842,AlPO4,-3.109110887607142
mp-1228971,AlV9Au2,-0.13348005708333202
mp-1229060,Al(V4Ge)3,-0.28367004031249904
mp-1229062,Al(V4Si)3,-0.41010687781249905
mp-1229114,Al(V4Sn)3,-0.114187503749997
mp-637575,AlCr3B4,-0.36287728624999804
mp-1229103,Al(PS3)2,-0.42702415382109704
mp-1274278,AlV2O4,-2.756262647857142
mp-557915,AlPO4,-3.11337830049603
mp-731836,Al(Si2O5)2,-3.102935936
mp-1103810,Y3AlC3,-0.37175559214285603
mp-1214875,AlGaBr4,-0.980390181666666
mp-1191390,TmAlB4,-0.502544788194446
mp-1212096,HoAlB4,-0.5545350587500001
mp-1213107,ErAlB4,-0.558038364722222
mp-574529,Al(SeCl2)2,-1.069165520446427
mp-8631,LuAlB4,-0.556593194444443
mp-995282,LiAlB4,-0.086125481603536
mp-568950,Na3AlH6,-0.257777186124999
mp-571039,CaAlPd,-0.753648914166667
mp-1078520,AlHO2,-2.6014224953125
mp-601275,K3AlH6,-0.16650156562499902
mp-27863,AlClO,-2.785187891666666
mp-4693,RbAlF4,-3.636890354999999
mp-641571,CeAlPd,-0.800711948968249
mp-7535,Li5AlO4,-2.492909137666666
mp-1228856,AlPPd4,-0.66189478299602
mp-1228943,AlGa3N4,-0.9194223406250011
mp-1261437,CeMg6Al,0.03327075375
mp-1239228,AlAgO2,-1.97396592986979
mp-752394,AlTeO4,-2.201440974861111
mp-8898,TaAlO4,-3.411296655805555
mp-1202918,AlBr3N,0.084624641374999
mp-1214957,AlPO6,-1.846254070111607
mp-1215024,AlAsO6,-1.3591405301562491
mp-1245430,AlBiN2,-0.48237090515625103
mp-1245678,YAlN2,-1.582715294531249
mp-1246285,AlInN2,-0.744660844687501
mp-1246607,AlFeN2,-0.582987724687501
mp-1247192,MnAlN2,-0.771290456045258
mp-1247415,AlCrN2,-0.8995809373437491
mp-13998,Na5AlO4,-2.071411079564654
mp-15960,Li5AlO4,-2.496202980041666
mp-28046,AlP2I9,-0.577801201607142
mp-540628,Al(TeCl2)2,-1.1156219646428571
mp-5440,AlPO4,-3.108476538412698
mp-5525,KAlO2,-2.909401789781249
mp-561027,AlPO4,-3.108467533273808
mp-626605,Al(HO)3,-2.018525343214286
mp-683883,AlPO4,-3.102683350617559
mp-1046804,AlWO3,-2.343923776999999
mp-1095464,YAlPd,-0.9211486749999971
mp-1095478,YAlPt,-1.2543385591666691
mp-1095572,TbAlAu,-0.789351933888886
mp-1095579,TmAlPt,-1.2937413383333332
mp-1095667,TmAlPd,-0.947572352500003
mp-1101773,NdAlAu,-0.739335882499997
mp-1101778,LaAlAu,-0.7351872008333361
mp-1101978,PrAlAu,-0.7212290588888941
mp-1102155,ErAlAu,-0.890246577777773
mp-1102191,DyAlAu,-0.7907927347222211
mp-1102212,SmAlPd,-0.880286700833333
mp-1102248,TmAlAu,-0.8928906191666681
mp-1102352,CeAlIr,-0.893538374166665
mp-1102423,CeAlAu,-0.660280730833334
mp-1102449,SmAlAu,-0.7636010991666651
mp-1102457,ErAlPt,-1.283022386111109
mp-1102631,CaAlPt,-1.040275554999998
mp-1102691,LuAlPt,-1.300067566388885
mp-1102737,HoAlPd,-0.9376719450000001
mp-1102820,ErAlPd,-0.9401311402777771
mp-1102840,YAlAu,-0.896976113333333
mp-1102944,TbAlPt,-1.259474879999994
mp-1102992,HoAlAu,-0.893311231666667
mp-1103032,HoAlPt,-1.277070362500002
mp-1103109,LaAlPt,-1.14559586833333
mp-1103193,EuAlAu,-0.6672081458333371
mp-1103319,DyAlPt,-1.26940722833333
mp-1103382,DyAlPd,-0.933337895833335
mp-1103450,SmAlPt,-1.092243473333332
mp-1106138,CeAlPd2,-0.8713719199999971
mp-1178550,AlInO3,-2.647275431833333
mp-1187025,SmAlO3,-3.692610324999999
mp-1188755,NdAlPd2,-0.881334572499994
mp-1189519,UAlAu2,-0.404343656874999
mp-1189783,PrAlPd2,-0.86437273666666
mp-1190835,KAlN4,0.39683065562499903
mp-1191162,AlNCl4,-0.22056745000000103
mp-1192061,LiAlH4,-0.195588120694443
mp-1193404,Al(HO)3,-1.978623792678572
mp-1199363,Ba3AlO4,-2.944955424687499
mp-1202082,KAlF4,-3.641902535791666
mp-1204653,AlC6N,1.033717489999999
mp-1204923,Al(SO6)2,-0.8852573573333341
mp-1207572,YbAlRh,-1.029285829166667
mp-1208050,Tm2AlGe3,-0.595568649583336
mp-1209241,RbAlH4,-0.31805841291666603
mp-1209422,RbAlCl4,-2.184869732916666
mp-1209467,RbAlBr4,-1.7790860412500011
mp-1209554,PrAlRh,-0.791235201388891
mp-1209843,NdAlRh,-0.8200043166666671
mp-1210155,NaAlBr4,-1.674231769813218
mp-1211364,LaAlNi,-0.5250822229166681
mp-1211543,LaAlRh,-0.8327823137499991
mp-1212088,HoAlRh,-0.9261962774999981
mp-1212392,Ho2AlGe3,-0.6228477545833311
mp-1212705,GdAlRh,-0.9115238624999951
mp-1212956,Er2AlGe3,-0.6141544612499991
mp-1213267,Dy2AlGe3,-0.710821010916665
mp-1237219,AlI3N7,0.8083879743181811
mp-1247828,AlOF,-3.600689776111111
mp-1248251,AlVO3,-2.8289318645000012
mp-1253488,AlAgO3,-1.761097008833333
mp-1254277,AlFeO3,-2.286588009499999
mp-12722,TbAlPd,-0.927291009999997
mp-1280023,AlV2O4,-2.728760831428571
mp-1291152,AlV2O4,-2.729441568214286
mp-1343733,AlAgO3,-1.7376004953333322
mp-1344602,AlBiO3,-2.3190562765
mp-1345463,AlCrO3,-2.7202839275
mp-1347317,AlCuO3,-1.957653834499999
mp-1368992,MnAlO3,-2.572380490586207
mp-1371447,AlSbO3,-2.249276157499999
mp-1373731,AlMoO3,-2.4467161835
mp-1376903,AlNiO3,-2.013076565499999
mp-1378752,AlCoO3,-2.159254788499999
mp-17186,Ca3AlAs3,-1.260281226785713
mp-18300,Ca3AlSb3,-0.9172372214285741
mp-19827,CeAlPt,-1.016719620833331
mp-21455,EuAlO3,-3.324379768500001
mp-27260,CsAlCl4,-2.006979204583333
mp-28642,Ba3AlF9,-4.092421213076923
mp-28997,Y2AlGe3,-0.6346373975
mp-29103,CsAlBr4,-1.813217334942527
mp-29221,Ca2AlF7,-4.076032328999999
mp-29373,KAlSb4,-0.311038921041666
mp-29395,NaAlI4,-1.151658431479887
mp-31097,KAlH4,-0.27599496979166604
mp-3344,CeAlRh,-0.8916973124999991
mp-3792,YAlO3,-3.7122381155
mp-4434,TbAlO3,-3.739704172833333
mp-4471,ScAlO3,-3.669621607
mp-4499,MgAlSi,-0.0052545925
mp-4891,HoAlO3,-3.752550615499999
mp-5168,AlSiP3,-0.373110040035714
mp-5223,GdAlO3,-3.6904500495
mp-556863,Ba3AlF9,-4.097918263846154
mp-567716,AlTlCl4,-1.836471812222224
mp-568130,NdAlPt,-1.053607782499997
mp-568424,CaAlAu,-0.758781767500001
mp-568449,Sm2AlGe3,-0.6611674995833331
mp-568685,TmAlRh,-0.9473090383333371
mp-570042,PrAlPt,-1.024592158888887
mp-571381,Tb2AlGe3,-0.7234179405000041
mp-572702,CsAlF4,-3.632740245833334
mp-604008,CeAlRu,-0.602825359583332
mp-625152,AlHO2,-2.6528255821875
mp-625404,AlHO2,-2.642126277812499
mp-625420,AlHO2,-2.6188285028125
mp-638061,AlInCl4,-1.491166371666666
mp-7405,SmAlO3,-3.697794770499969
mp-755574,LuAlO3,-3.783986143833334
mp-756082,AlVO3,-2.894106270500001
mp-756281,TmAlO3,-3.775944358500001
mp-756458,ErAlO3,-3.763360320499997
mp-756630,DyAlO3,-3.745956005333332
mp-756686,AlGaO3,-2.740240361500001
mp-768538,Mn2AlO4,-2.483427134051725
mp-768539,AlTlO3,-2.188174606166668
mp-776154,AlFeO3,-2.486505096999999
mp-776167,CeAlO3,-3.617263174
mp-1024985,ErAlGe,-0.6400691416666651
mp-1025105,LuAlGe,-0.600481952222221
mp-1070916,AlBW,-0.32112350250000005
mp-1071337,TbAlGe,-0.506554825000004
mp-1072024,TmAlGe,-0.6259385966666691
mp-1076977,DyAlGe,-0.7293681633333331
mp-1077056,GdAlGe,-0.695777436666666
mp-1077599,ScAlGe,-0.5870992150000001
mp-1077785,HoAlGe,-0.643018766666665
mp-1079110,Hf3AlN,-1.08851671475
mp-1102077,NaAlF4,-3.6078792125
mp-1105368,NbAlBr8,-1.407833382499999
mp-1106104,AlI3N5,1.052633007222221
mp-1183276,AlTl2F5,-2.909834408749997
mp-1194505,AlNi9B8,-0.286195237129629
mp-1206025,HoAlSi,-0.66815269333333
mp-1206233,TbAlGe,-0.734905894999999
mp-1206326,ErAlSi,-0.660029219444446
mp-1206330,DyAlSi,-0.673814138333334
mp-1214899,AlI3N5,1.217763792222222
mp-1215405,ZrAlCr3,0.113128173433338
mp-1217093,Ti2NbAl,-0.30455692833333303
mp-1245920,Al(C2N3)3,-0.0067994384375
mp-1245994,AlCr2N3,-0.829527028541664
mp-1248327,TiAlO3,-3.127591599333334
mp-13024,AlPO4,-3.013919694107142
mp-27758,AlTl2F5,-2.910038026875
mp-27898,Zr3AlN,-1.117505013749999
mp-28358,NbAlCl8,-1.4942250885
mp-28850,MnAlF5,-3.4731950239901472
mp-29736,YAlGe,-0.650895626666661
mp-31080,YAlSi,-0.6686579583333341
mp-504676,AlTl2F5,-2.905819693124996
mp-567229,LuAlSi,-0.6338517688888881
mp-571506,TmAlSi,-0.6579492866666681
mp-756705,YAlO3,-3.6706364266666682
mp-756850,LuAlO3,-3.706706327666666
mp-7574,AlBMo,-0.48689827250000106
mp-768518,LaAlO3,-3.669252299333332
mp-1078316,Ce2AlRu2,-0.515097475999995
mp-1192373,Ba3AlP3,-1.010714270204082
mp-1192376,Ba3AlAs3,-1.04244424357143
mp-1192533,Sr3AlAs3,-1.2562482685714271
mp-1246082,Y2AlN3,-1.714129716874997
mp-17667,Sr3AlSb3,-0.9581619842857141
mp-18439,Ba3AlSb3,-0.9958173560714301
mp-866315,Al(Ni3B2)4,-0.329018087777777
mp-1182867,AlWO4,-2.682709359999999
mp-1216573,TmAlNi4,-0.537411443333334
mp-1217565,TbAlCo4,-0.22624962277777702
mp-1217581,TbAlNi4,-0.520720659444439
mp-1219687,PrAlNi4,-0.44939476194444405
mp-1220177,NdAlNi4,-0.469391071249998
mp-1220652,Pr4AlCo25,0.17660726153667702
mp-1222898,LaAlCu4,-0.280316579166665
mp-1222929,LaAlNi4,-0.46558723583333206
mp-1223899,HoAlNi4,-0.527795862499993
mp-1224779,GdAlNi4,-0.5152941750000051
mp-1225293,DyAlCo4,-0.234208716944444
mp-1225297,DyAlNi4,-0.5257779636111041
mp-1225548,ErAlNi4,-0.5354818933333321
mp-1226626,CeAlNi4,-0.49967570166666403
mp-1226649,CeAlCo4,-0.251531558333333
mp-1226887,CeAlCu4,-0.25851480333333404
mp-1227640,Ce4AlCo25,-0.038894241333333
mp-1228017,AlSiPt6,-0.585195069374997
mp-2647066,Zr2AlCu2,-0.29537122000000005
mp-3805,Al(FeB)2,-0.40118319366666305
mp-568040,La2AlNi9,-0.37542379416666605
mp-603719,AlPO4,-2.759677032440476
mp-675172,TaAlO4,-3.332790419555555
mp-676861,AlSbO4,-2.5433669
mp-753658,AlCrO4,-2.385538456666667
mp-7692,Al(CrB)2,-0.38110427100000005
mp-7892,Mn2AlB2,-0.47041736883908103
mp-973540,LuAlB4,-0.5524430769444441
mp-1229057,AlSi3O8,-3.073645007499999
mp-29407,AlTeI7,-0.680516245185186
mp-29408,AlSeBr7,-1.02974525359375
mp-555805,AlSCl7,-0.9023574200347211
mp-626073,Al(HO)3,-1.9838235744642851
mp-626467,Al(HO)3,-1.99147785625
mp-626587,Al(HO)3,-2.0196086
mp-1014462,Li2YAl,0.06497372277777701
mp-1015811,AlCo2Si,0.5387561068749981
mp-1015814,LiMg2Al,0.24378375166666702
mp-1025166,MgAlF5,-3.299667382857143
mp-10527,Y2AlSi2,-0.771901586000001
mp-10528,Ho2AlSi2,-0.7710894600000011
mp-10529,Er2AlSi2,-0.763127557333331
mp-10530,Tm2AlSi2,-0.762101785999999
mp-10531,Lu2AlSi2,-0.7379644066666621
mp-1068244,Er2AlNi2,-0.573032457999997
mp-1069297,Tb2AlNi2,-0.5294039046666661
mp-1069330,Nd2AlNi2,-0.437260090999998
mp-1069611,Tm2AlNi2,-0.580645606000003
mp-1069801,Ho2AlNi2,-0.550702683999998
mp-1069950,Pr2AlNi2,-0.38175610066666504
mp-1070507,Lu2AlNi2,-0.6094509006666641
mp-1070646,Dy2AlNi2,-0.5377796906666671
mp-1071506,Gd2AlNi2,-0.5157238499999991
mp-1093539,Ca2AlZn,1.4435270725
mp-1093546,Y2AlHg,2.004576872083333
mp-1093645,Ti2AlW,3.561963165416671
mp-1093659,Ca2AlTl,1.422149490707322
mp-1093684,BeAlPd2,1.54961335625
mp-1093696,Ca2MgAl,1.5221974137499998
mp-1093712,Sc2AlHg,1.9918454406250021
mp-1093717,Sc2AlIn,2.1351464875
mp-1093778,YAlPd2,1.333399783750021
mp-1093784,MgAlAu2,0.8182807037500001
mp-1093791,Mn2AlTc,2.972770209784482
mp-1093799,NaCa2Al,1.374993938394997
mp-1093864,AlRu2W,3.322559923541668
mp-1093884,ScAlRu2,2.6737537912500002
mp-1093887,La2AlZn,2.022446192500002
mp-1093891,AlZnNi2,1.811301872500001
mp-1093897,Li2LaAl,1.886630248333332
mp-1093903,AlVRe2,3.829786821250003
mp-1095717,AlZnAu2,0.759267865416671
mp-1095751,LiSc2Al,2.282564472916666
mp-1095779,AlGaNi2,1.811484961309522
mp-1095784,LiAlZn2,1.2270674011111091
mp-1095788,Y2AlAg,2.200961057708332
mp-1095859,Ba2AlTl,1.358400661666664
mp-1095917,AlGaPd2,1.148549383749998
mp-1095930,AlSiTc2,2.88540939688138
mp-1095936,AlZnCu2,1.4313631325
mp-1095982,Ca2AlCd,1.364942397500001
mp-1095983,TaAlRe2,4.117144762333332
mp-1096050,MgAlPt2,1.38076402625
mp-1096066,AlCuNi2,2.177364421250002
mp-1096072,AlFeIr2,2.9463550675
mp-1096091,Y2AlRu,2.3393122775
mp-1096101,Sc2AlPd,1.969070489062499
mp-1096125,AlVCr2,3.157587792500001
mp-1096126,AlTc2Ge,2.849030440196433
mp-1096156,AlV2W,4.142283628749997
mp-1096166,BeAlCo2,2.553502331249999
mp-1096171,AlZnCo2,2.235773549886364
mp-1096207,AlFe2Ge,2.34344372375
mp-1096270,Y2AlPb,1.932182500267853
mp-1096281,LiAlHg2,0.8332092427083281
mp-1096286,Ta2AlRe,4.233125543352486
mp-1096308,AlFeRu2,3.210872525
mp-1096345,AlGaRu2,2.610289004999996
mp-1096348,Li2AlAu,0.8842873438357881
mp-1096379,AlNiRh2,2.520901753750008
mp-1096407,AlNiPt2,2.058936860000001
mp-1096462,AlCdRh2,1.928992709999999
mp-1096512,NbAlTc2,3.300246167541665
mp-1096540,LiAlIr2,2.50167210333333
mp-1096575,AlCr2W,3.819264482999997
mp-1096622,Li2CaAl,1.397315824553571
mp-1096663,ZrAlTc2,3.11885461091666
mp-1096668,AlAgAu2,0.9190235165625
mp-1096697,YAlCu2,1.966611447672725
mp-1096736,Zr2AlTc,3.102473803312495
mp-1096748,HfAlTc2,3.232701025250009
mp-1096756,AlSiNi2,1.9531216670833342
mp-1096760,TiAlIr2,2.343045859166666
mp-1097097,Hf2AlRe,3.7412591543750002
mp-1097118,Sc2AlGa,2.140417980937499
mp-1097119,AlGaCo2,2.245236722500001
mp-1097150,AlCuRh2,2.342025016666676
mp-1097152,Mn2AlMo,3.241716973534482
mp-1097163,AlReTc2,3.79126974875
mp-1097203,Y2AlCu,2.364028299791664
mp-1097204,AlGaIr2,2.267350720000003
mp-1097217,Y2AlTl,2.074290717499998
mp-1097296,AlSnRu2,2.727687154196431
mp-1097325,Sc2AlPt,1.8682087425000011
mp-1097350,TaAlTc2,3.472548738999993
mp-1097362,Y2AlCd,2.231801335
mp-1097386,AlCrTc2,3.265935490000004
mp-1097410,AlCrOs2,3.707583847499997
mp-1097420,YAlAu2,1.170665989447453
mp-1097427,AlFeTc2,3.5441269975000003
mp-1097449,Hf2AlMo,3.622975893541664
mp-1097457,Sr2LiAl,1.3952289140740741
mp-1097461,ZrAlFe2,2.891814659999999
mp-1097493,AlTc2Mo,3.538903659999995
mp-1097502,TiAlTc2,3.176516565833335
mp-1097514,MgAlNi2,1.88717350625
mp-1097542,AlTc2Sb,2.755320762500002
mp-1097561,AlZnPd2,1.195476845
mp-1097575,Sc2AlAu,1.9451679
mp-1097579,LiAlGa2,1.156407643583332
mp-1097583,Sc2AlTl,2.118072797986109
mp-1097602,La2MgAl,2.222363651249999
mp-1097605,AlTc2W,3.688698092500004
mp-1097622,Ti2NbAl,3.306883879166667
mp-1097646,BeAlPt2,1.6397188737500001
mp-11927,Pr2AlCo2,-0.17718613938126201
mp-1206462,Sm2AlNi2,-0.47505670599999905
mp-1207023,Yb2AlNi2,-0.6106172280000011
mp-1216345,UAlAu,-0.44482509333333003
mp-1248522,Hf2AlRe,3.737959004375001
mp-1248567,AlVF5,-3.479429516428573
mp-1251112,AlCoF5,-3.164929726428571
mp-1251392,AlCuF5,-2.9340493614285723
mp-1251981,MnAlF5,-3.473000048990148
mp-1253073,AlSnF5,-3.184224618392857
mp-1254289,TiAlF5,-3.472955818333333
mp-1262038,AlWF5,-2.791011414999999
mp-1262600,AlCrF5,-3.410629022142856
mp-1262938,AlV2W,3.720295381249997
mp-1263325,AlNiF5,-3.110630491428572
mp-13430,Nd2AlCo2,-0.200198415151515
mp-13431,Dy2AlCo2,-0.37967793666666205
mp-13432,Tb2AlCo2,-0.36562908466666705
mp-28901,AlFeF5,-3.310668462142857
mp-5468,Na3AlF6,-3.3427304259999993
mp-604516,Y2AlNi2,-0.513972116
mp-637222,Gd2AlCo2,-0.350464496
mp-5122,Na3AlP2,-0.648331853492063
mp-8543,Na3AlAs2,-0.6638637349999991
mp-1198560,LiAlP2,-0.355337327078371
mp-1201040,LiAlAs2,-0.368084459375001
mp-1045403,Ti2AlO4,-3.011764145238094
mp-1045423,Al(CoS2)2,-0.568394902946425
mp-1045438,Al(FeS2)2,-0.7613324928571421
mp-1045487,Mn2AlS4,-0.9520849144088661
mp-1045491,Al(NiS2)2,-0.713075109285715
mp-1045494,AlV2O4,-2.648757870714285
mp-1045504,Al(NiO2)2,-1.822191542142856
mp-1045538,AlV2O4,-2.557681323571429
mp-1080060,LaAlO3,-3.722466562999999
mp-1197767,LuAlB14,-0.170145344209402
mp-1198572,YbAlB14,-0.17766088468750102
mp-1198758,ErAlB14,-0.195572355374203
mp-1201129,DyAlB14,-0.17803849117866602
mp-1201619,TbAlB14,-0.20247020716091502
mp-1215318,ZrAlCu,-0.402913398333333
mp-1215376,ZrAlNi,-0.23442104666666602
mp-1215521,YbAlCu,-0.448949696666668
mp-1215934,YMnAl,-0.224800095977011
mp-1215937,YAlFe,-0.282660788333332
mp-1216294,UAlCo,-0.22199240833333503
mp-1216551,TmAlCu,-0.44284015888888906
mp-1216712,UMnAl,-0.14689581597700901
mp-1217310,ThMnAl,-0.21278200431034303
mp-1217485,TbMnAl,-0.223166981532566
mp-1217569,TbAlCu,-0.42657182055555604
mp-1219108,SmAlCu,-0.384016211111112
mp-1222329,LuAlCu,-0.442044945555556
mp-1223751,HoMnAl,-0.23964960264367602
mp-1224321,HfAlZn,-0.43226891333333306
mp-1225285,DyAlCu,-0.38108688722222
mp-1225461,ErMnAl,-0.25354820097701103
mp-1225534,DyMnAl,-0.23113786986589901
mp-1226628,CeMnAl,-0.205055022643676
mp-1228985,AlCrNi,-0.048253310000002006
mp-1281387,AlV2O4,-2.764986320714285
mp-1293197,Al(FeO2)2,-2.234448979285713
mp-1926096,Al(FeS2)2,-0.848194870714284
mp-19843,CeAlO3,-3.620338527999999
mp-34763,NaAlB14,-0.1772358134375
mp-569726,HoAlB14,-0.19824139645069702
mp-753184,Al(CoO2)2,-2.05576668
mp-8204,LiAlB14,-0.191039559791667
mp-1214948,AlPbF5,-3.313423510952373
mp-540653,SrAlF5,-4.034318735892858
mp-1183035,Al(MoS2)4,-0.33444770998718104
mp-1199762,AlPO4,-3.090013013921957
mp-1219227,Sm2AlAg3,-0.35201118416666505