material_id,formula,formation_energy_per_atom
mp-1194983,CaFe2Cu3(SbO6)2,-1.72163007825
mp-21539,CaCr2Cu3(SbO6)2,-1.881754567749999
mp-41331,CaGa2Cu3(SbO6)2,-1.8371959750000002
mp-686705,CaNb2Ga2(CuO4)3,-2.220370070499999
mp-720504,CaGa2Cu3(RuO6)2,-1.658477846749999
mp-1218477,Sr4Mn2Cu3(SO)4,-1.897280112991886
mp-1218497,Sr4Mn2Cu3(SeO)4,-1.858075806190415
mp-1228709,Ba3Sc3In(CuO4)3,-2.657963933484848
mp-1226154,Fe8Cu3Te12(Cl5O16)2,-1.423161949076923
mp-1227458,BaSrPrCu3O7,-2.155943273589742
mp-1227474,BaSrSmCu3O7,-2.183113676153845
mp-1227498,BaSrNdCu3O7,-2.166936908653845
mp-1227765,BaSrErCu3O7,-2.211466648846153
mp-1227782,BaSrEuCu3O7,-2.053400246153846
mp-1235082,Ba2LiLaCu3O7,-2.047142507380953
mp-1235204,Ba2LiTmCu3O7,-2.050706454880953
mp-1236002,Ba2LiTmCu3O7,-2.11186098202381
mp-1236092,Ba2LiTmCu3O7,-2.04782063202381
mp-1236128,Ba2LiTmCu3O7,-2.092314817023809
mp-1236757,Ba2LiTmCu3O7,-2.051028652738095
mp-2215860,Ba2TmMgCu3O7,-2.093835052857142
mp-2215890,Ba2TmMgCu3O7,-2.129262952857142
mp-2215912,Ba2TmMgCu3O7,-2.099299838571429
mp-2215918,Ba2TmMgCu3O7,-2.040542563571428
mp-2215931,Ba2TmMgCu3O7,-2.045367780714286
mp-2226683,Ba2YMgCu3O7,-2.018251127142857
mp-2227205,Ba2PrMgCu3O7,-1.984337660833333
mp-2228452,Ba2PrMgCu3O7,-2.036724896547618
mp-2228475,Sr2YMgCu3O7,-2.086320483571428
mp-2228487,Ba2SmMgCu3O7,-2.063474589642857
mp-2228492,Ba2SmMgCu3O7,-2.056143808214286
mp-2228503,Sr2YMgCu3O7,-2.085499110714285
mp-2228520,Ba2NdMgCu3O7,-2.048892579821427
mp-2228550,Ba2NdMgCu3O7,-2.040137771249999
mp-2228583,Ba2NdMgCu3O7,-1.9941074605357132
mp-2228596,Ba2GdMgCu3O7,-2.029812288571428
mp-2228606,Ba2LaMgCu3O7,-2.051563483928571
mp-2228904,Ba2SmMgCu3O7,-2.008879253214286
mp-2240907,Ba2SmMgCu3O7,-2.028619303214285
mp-2240973,Ba2HoMgCu3O7,-2.043565791785713
mp-2241019,Sr2YMgCu3O7,-2.211494766428571
mp-2241319,Ba2EuMgCu3O7,-1.936947193928572
mp-2241402,Ba2HoMgCu3O7,-2.081824445357142
mp-2242035,Ba2YMgCu3O7,-2.033016140714286
mp-2242050,Ba2YMgCu3O7,-2.068291861428572
mp-578628,Sr2YCu3(PbO4)2,-2.033350729999999
mp-1075901,Sr6Ca2Co5(CuO8)3,-1.871011173999999
mp-1076429,Ba2Sr6Co5(CuO8)3,-1.8578459317499991
mp-555595,KCu3S2ClO9,-1.561990052796875
mp-1202064,Cu3Pb2Se2(NO7)2,-1.1396154791168471
mp-1099886,Ba3SrCo(CuO4)3,-1.7305455410000001
mp-1228620,Ba2Ca2Tl2Cu3O10,-1.9379042850877202
mp-1209020,Sr2Ca2Ga(CuO3)3,-2.2475835048529422
mp-1214572,Ba2YCu3O6F,-2.290814147307692
mp-1214650,Ba2YCu3SO6,-1.9949550651923071
mp-1214929,Ba2GdCu3SO6,-1.996610195192308
mp-2228540,Ba2YMgCu3S7,-1.273160211964285
mp-1191242,Na2Cu3Bi2As2O13,-1.421963383761756
mp-1224225,K3TaNbCu3S8,-1.209867136817707
mp-2228512,MgCu3Te2(BrO3)2,-1.302657703452381
mp-1198573,Sr2YCu3(PbO4)2,-2.061529419062499
mp-1173276,Sr2La2FeCu3O10,-2.393824591111112
mp-505104,Cu3BiSe2ClO8,-1.212203975645833
mp-555517,ErCu3Se2ClO8,-1.611824987645834
mp-572807,NdCu3Se2ClO8,-1.597352793145833
mp-581370,YCu3Se2ClO8,-1.6021799313125
mp-628637,Cu3BiSe2BrO8,-1.1927057003125001
mp-669425,Cu3BiSe2IO8,-1.152189665645833
mp-1099763,Ba2Sr2Co(CuO4)3,-1.746319999
mp-1177279,Li4TiCu3(PO4)4,-2.401965505544217
mp-1177402,Li4FeCu3(PO4)4,-2.2490715072108842
mp-1218799,Sr3Cu3Pb3ClO8,-1.864759673333333
mp-1228463,Ba3Sr5Tl5Cu3O19,-2.002699041761906
mp-1235292,Ba2LiLaCu3O7,-1.949081090238095
mp-1235964,Ba2LiTmCu3O7,-2.043010426309524
mp-2215983,Ba2TmMgCu3O7,-2.137520724999999
mp-753744,Li4MnCu3(PO4)4,-2.291769255351278
mp-757489,Li4CoCu3(PO4)4,-2.22783057542517
mp-757757,Li4Cu3Ni(PO4)4,-2.22524317542517
mp-762224,Li4Cu3Sb(PO4)4,-2.225625571853741
mp-765628,Li4Cu3Bi(PO4)4,-2.240111540068027
mp-849752,Li4Cu3Sn(PO4)4,-2.239970735603741
mp-1197453,Cu3P4C4(NO6)2,-1.076845279142856
mp-1213584,Cu3H8S4(NO8)2,-1.319305894924243
mp-572778,Cu3BiTe2ClO8,-1.253028769555555
mp-697969,Rb2Cu3H2S3O14,-1.421116499062499
mp-684769,Sr2La6TiCu3O16,-3.083868887619048
mp-1173287,Sr2Ca2Cu3BiO8,-2.024991963124999
mp-780775,Sr3Li3Cu3(PO4)4,-2.595393475812808
mp-555856,Sr4Mn2Cu3(SO)4,-1.899515855344828
mp-642157,V2Cu3Pb(ClO4)2,-1.566172843125
mp-972470,V2Cu3Pb(ClO4)2,-1.637256122499999
mp-1075961,La7SmCo5(CuO8)3,-2.459401428750001
mp-1075982,BaSr7Co5(CuO8)3,-1.8618051592499998
mp-1177343,Li4Nb2Fe3Cu3O16,-1.923567606190476
mp-1177443,Li4Fe2Cu3Sn3O16,-1.64762952922619
mp-1218006,TaCu3TeSe2S,-0.7119237470234361
mp-1228257,Ba2YCu3PbO7,-2.132360368928571
mp-1235359,Ba2LiLaCu3O7,-2.123288804523809
mp-1235372,Ba2LiLaCu3O7,-2.096817375952381
mp-1235844,Ba2LiLaCu3O7,-2.111817059523809
mp-2240084,MgCu3TeS3Cl,-0.5754068615740731
mp-735790,Li14Mn22Cr3Cu3O56,-1.995195968787238
mp-752500,Li4Ti3Mn2Cu3O16,-2.196001852114121
mp-752651,Li4Ti2Nb3Cu3O16,-2.507517216785714
mp-754017,Li4Fe2Co3Cu3O16,-1.3680755526190471
mp-754057,Li4Fe2Cu3Sb3O16,-1.6993370972619042
mp-756039,Li4Mn3V2Cu3O16,-1.8583515231116592
mp-756991,Li4Co2Cu3Sb3O16,-1.6066594576190472
mp-757134,Li4Ti2Fe3Cu3O16,-1.898722929999999
mp-757393,Li4Mn3Cu3(TeO8)2,-1.7079555307307062
mp-757744,Li4Cu3Ni3(TeO8)2,-1.458797000595238
mp-757783,Li4Ti3Cu3(WO8)2,-2.349938306190476
mp-758211,Li4Mn2Co3Cu3O16,-1.407565789971264
mp-758255,Li4Co3Cu3(WO8)2,-1.657765835833334
mp-758259,Li4Ti3Cu3(TeO8)2,-2.175919673452381
mp-758266,Li4V2Co3Cu3O16,-1.637218852976191
mp-758365,Li4Fe3Co2Cu3O16,-1.365954698690476
mp-759296,Li4Fe3Cu3(WO8)2,-1.7839968679761902
mp-764385,Li4Fe3Cu3(SbO8)2,-1.6689839844047611
mp-770549,Li4Cr3Cu3(TeO8)2,-1.811136050238094
mp-773508,Li4Cu3Ni3(WO8)2,-1.623098902976189
mp-774612,Li4Mn2Fe3Cu3O16,-1.545371491756979
mp-774670,Li4Mn3Cu3(SnO8)2,-1.761600393111658
mp-774683,Li4Cr2Cu3Sb3O16,-1.8139308654761899
mp-774767,Li4Nb2V3Cu3O16,-2.237197010119048
mp-774886,Li4Nb3Cu3(TeO8)2,-2.085868510238095
mp-774887,Li4Cu3Ni2Sb3O16,-1.597724420833333
mp-774888,Li4Cr3Cu3(WO8)2,-1.9699280176190481
mp-775145,Li4Nb3Cu3(SnO8)2,-2.177211544761905
mp-775290,Li4Nb2Cr3Cu3O16,-2.125860550476191
mp-775631,Li4Fe3Cu3(SnO8)2,-1.616184848333333
mp-776289,Li4Mn2Cu3Sn3O16,-1.7326246326498351
mp-776445,Li4Ti2Cu3Sb3O16,-2.104482110357143
mp-777916,Li4Fe3Cu3(TeO8)2,-1.61967952345238
mp-778758,Li4Ti3Fe2Cu3O16,-2.120455624761904
mp-779210,Li4Mn3Fe2Cu3O16,-1.6198004027545152
mp-780863,Li4V2Fe3Cu3O16,-1.72342408297619
mp-783908,Li4Cr3Cu3(SbO8)2,-1.871071641190476
mp-849709,Li4Ti3V2Cu3O16,-2.379518366190476
mp-851095,Li4Mn3Cu3(WO8)2,-1.8738018338259441
mp-867667,Li4Mn3Cr2Cu3O16,-1.736244868111658
mp-1203070,Na4Cu3S8N5O12,-0.49035409751616404
mp-1227431,BaSrSm(CuO2)3,-2.22503092375
mp-1235088,Ba2LiLaCu3O7,-2.018006666666666
mp-1235104,Ba2LiLaCu3O7,-2.072245782380952
mp-1236807,Ba2LiLaCu3O7,-2.019346403095237
mp-1218877,Sr2CePrCu3(PbO5)2,-2.330169242192983
mp-1222758,Mg3V6Cd2Cu3PbO24,-2.153091445256409
mp-1232983,Sr4LiMn2Cu3(SO)4,-1.7464992405108561
mp-1234111,Sr4CaMn2Cu3(SO)4,-1.5961032547701142
mp-1234487,Sr4CaMn2Cu3(SO)4,-1.853411711992337
mp-1235403,Sr4LiMn2Cu3(SO)4,-1.764306700510856
mp-1236109,Sr4LiMn2Cu3(SO)4,-1.766453812733078
mp-1173223,Sr3Y2FeCu3BiO12,-2.180140320681819
mp-556333,K2ZnCu3P3O12F,-2.192421146746728
mp-1198285,Cu3P4H8N2(O3F)4,-1.801257486774892
mp-557801,KBa3Ca4V7Cu3O28,-2.615975193092391
mp-1199099,Cu3P4H24C6(NO8)2,-1.049046427792207
mp-1235184,Sr4LiMn2Cu3(SO)4,-1.841798973288634
mp-1218551,Sr3Y2FeCu3BiO12,-2.359301352272727
mp-1233888,Sr4MgMn2Cu3(SO)4,-1.585240731714559
mp-1235142,Sr4LiMn2Cu3(SO)4,-1.7433254838441892
mp-1235689,Sr4LiMn2Cu3(SO)4,-1.733723846066412
mp-1236434,Sr4LiMn2Cu3(SO)4,-1.739586764399745
mp-1227794,BaSrCa2Tl(CuO3)3,-2.046405688725491
mp-1218662,Sr6Ce2Y4Fe3(CuO8)3,-2.8447347702380963
mp-1227647,BaSrYCu3PbO7,-2.124588891071428
mp-1218736,Sr6Ce2Y4Fe3(CuO8)3,-2.833792292380953
mp-542553,Cu3As4H18C8Br3(NO2)2,-0.41738594494047604
mp-542554,Cu3As4H18C8I3(NO2)2,-0.38490917315476103
mp-605172,Cu3As2H16C16Br3(NO)2,-0.21043490943181803
mp-605196,CsCu3As8H24C8(IO2)4,-0.5549813958867
mp-1204081,Cu3MoH24C8S3I3N2O,-0.31414993761111104
mp-30589,LaCu4,-0.144846165
mp-1023130,Cu4O3,-0.706408099285714
mp-2643,Ti3Cu4,-0.13434752285714002
mp-1478,Cu4O3,-0.8074406257142841
mp-1224832,GaCu4,0.015798405666667
mp-1224977,FeCu4,0.061598886000000005
mp-1225761,Cu4Au,0.06479794400000001
mp-1225796,Cu4Se3,-0.08696829340773601
mp-1246292,Cu4As,0.09342977199999801
mp-1188441,TiCu4,-0.08592577333333301
mp-30594,Cu4Pd,-0.063733222500002
mp-674421,Tl8Cu4F11,-1.498772830217401
mp-754095,Li3Cu4F9,-2.151931585624998
mp-761126,Cu4OF6,-1.562272698181818
mp-1225837,Cu4PtO5,-0.8955065985
mp-753552,Cu4PtO5,-0.9055933625000001
mp-1205509,Nd2Cu4Sn5,-0.25117944636363504
mp-1206380,Pr2Cu4Sn5,-0.24572007712121102
mp-570702,Sm2Cu4Sn5,-0.24425329045454502
mp-1228096,K4Cu4Sn7,-0.19751160154444403
mp-1216933,U3(Ga2Cu)4,-0.113085108666664
mp-2218962,Mg(CuO2)4,-0.8069855511538451
mp-1095591,Tm3(CuSn)4,-0.47122788636363805
mp-1103053,Er3(CuSn)4,-0.48640577545454206
mp-1103249,Ho3(CuSn)4,-0.49489614863636305
mp-1178005,Li2Cu4S3,-0.6716761982407401
mp-1206069,Lu3(CuSn)4,-0.49624011090908604
mp-1216128,Y3Ga7Cu4,-0.47217722732143
mp-1225709,Cu4I3Br,-0.15782126499999902
mp-17625,Na2Cu4S3,-0.662015984473179
mp-27124,Cu4(BiS2)5,-0.352217865427633
mp-541149,Cu4Bi7S12,-0.33258614545289905
mp-573877,Tm3(CuSn)4,-0.32788265000000205
mp-756685,Co(CuO2)4,-0.835150149230769
mp-29091,Ti(CuS)4,-0.82992570925926
mp-10092,KCu4Se3,-0.534233396785155
mp-1025447,TlCu4Se3,-0.22741069433593702
mp-1025519,RbCu4S3,-0.588894039999984
mp-1078762,RbCu4Se3,-0.534061025566406
mp-1079564,EuCu4P3,-0.43272539486607103
mp-1080109,Cu4S3N,0.43394706436197805
mp-1224944,GaCu4Ni15,-0.025205472000001002
mp-1225692,Cu4BrCl3,-0.461359466875
mp-27677,KCu4S3,-0.5903214574687491
mp-505198,CsCu4Se3,-0.45421623839843506
mp-7785,CsCu4S3,-0.475161472304687
mp-8159,TlCu4S3,-0.39683280947916605
mp-1147739,Ba(CuO)4,-1.291354754444444
mp-1105256,LaCu4P3,-0.49105515236607006
mp-22295,Ca(Cu2P)2,-0.500592162278912
mp-753717,Cu4OF6,-1.579423875454546
mp-766521,Li10Cu4S9,-1.043881985036231
mp-1200769,Yb(Ga2Cu)4,-0.126605769358973
mp-1225710,Cu4Br3Cl,-0.377490299375
mp-27961,Zr3(Cu2Si3)2,-0.49014850000000004
mp-28687,U2Cu4As5,-0.358703417954544
mp-1197335,Cu4SO10,-0.967688843333333
mp-1198566,Cu4SO10,-0.9613335146666661
mp-1204253,Cu4Se3O10,-1.07160097147978
mp-565590,Cu4GeS4,-0.46238710069444305
mp-1104488,Sr(Cu2Sn)2,-0.21889971714285703
mp-574507,Eu(Cu2Sn)2,0.44762938928571405
mp-26742,Cu4(PO4)3,-1.855624705733082
mp-753623,Li2Cu4S3,-0.6304044837962961
mp-1208142,V3(CuS2)4,-0.744469805999998
mp-1216565,TmBeCu4,-0.194294372499999
mp-1219099,SmCu4Pd,-0.288292413333332
mp-1220178,NdCu4Pd,-0.269898409583331
mp-1224695,GdCu4Pd,-0.281446159999999
mp-34126,Cu4SnP10,-0.16827058131746
mp-675137,Cu4Sn7S16,-0.43152321055555504
mp-29069,Na(CuS)4,-0.5932587401532551
mp-10441,Sr(Cu2As)2,-0.40069335785714405
mp-10442,Eu(Cu2As)2,-0.37066081142857205
mp-1078005,K(Cu2Sb)2,-0.161107064821428
mp-1225726,Cu4IBr3,-0.267895881249999
mp-16052,Ba(Cu2As)2,-0.325536545
mp-2219138,Mg(CuO2)4,-0.9838053949999991
mp-28006,Ca(Cu2As)2,-0.40476749357142905
mp-8607,Na(Cu2Sb)2,-0.120316262857142
mp-8608,K(Cu2As)2,-0.17922482889285601
mp-1048179,BaCu4O7,-0.9970072120833331
mp-1102046,MnInCu4,0.034170991813082
mp-1215637,YbGaCu4,-0.27661901250000104
mp-1215968,YBeCu4,-0.1482018675
mp-1217587,TbBeCu4,-0.15109675861111102
mp-1219080,SmBeCu4,-0.134561445
mp-1219996,PrCu4Pd,-0.27789425694444503
mp-1220198,NdBeCu4,-0.11699530541666602
mp-1223765,HoCu4Ni,-0.23151346250000002
mp-1223886,HoBeCu4,-0.152426173333331
mp-1225153,EuCu4Pd,-0.245665530833334
mp-1225311,DyBeCu4,-0.15255085444444302
mp-1226755,CeGaCu4,-0.213944561666667
mp-10379,Hf3(Cu2Ge)2,-0.43490060777777806
mp-15985,Zr3(Cu2Ge)2,-0.48481662333333403
mp-15987,Hf3(Cu2Si)2,-0.48338578999999804
mp-7930,Zr3(Cu2Si)2,-0.512764974444443
mp-1182855,CeCu4Sn,-0.022377600416666
mp-655580,CeCu4Sn,0.0368129525
mp-1208763,Sm(Ga2Cu)4,-0.24360746461996402
mp-5169,Cu4P2O9,-1.734495814285714
mp-541147,Cu4Se3O10,-1.07647395217831
mp-559159,Cu4As2O9,-1.239467006
mp-650741,Cu4Mo5O17,-1.613789706923076
mp-673151,Cu4(PO4)3,-1.846505159417292
mp-756934,Co(CuO2)4,-0.849835449230769
mp-21827,In9(CuSe4)4,-0.44787173254011403
mp-1024957,TmInCu4,-0.32792603333333104
mp-1024987,HoCu4Ag,-0.237075347777771
mp-1024994,HoCu4Au,-0.34593563916666503
mp-1025013,GdCu4Pd,-0.32145595999999904
mp-1025116,TmCu4Ag,-0.246742937500002
mp-1025134,HoCu4Pd,-0.37828091083333404
mp-1070869,ZrCu4Ag,-0.14849889361110602
mp-1071051,NdMgCu4,-0.188007068749999
mp-1071645,YInCu4,-0.30198056500000003
mp-1071839,UCu4Au,-0.036800614999998
mp-1071877,UCu4Pd,-0.10878206805555601
mp-1072033,DyCu4Ag,-0.23427210222222103
mp-1072041,GdCu4Au,-0.318305115000002
mp-1072264,TbCu4Ag,-0.23125080305554901
mp-1072398,MnCu4Sn,0.057948508678161
mp-1072653,UCu4Ag,0.08237648555555101
mp-1072944,ScCu4Sn,-0.22685873583332902
mp-1077165,YbCu4Au,-0.38036852416666506
mp-1077290,ErCu4Au,-0.35113145833333503
mp-1077293,GdInCu4,-0.27117108166666704
mp-1077341,YbCu4Ni,-0.18098151249999903
mp-1077428,NdCu4Ag,-0.176990853749998
mp-1077498,ErCu4Ag,-0.242329630277779
mp-1077518,ErCu4Pd,-0.38340395388888904
mp-1077741,YbCu4Ag,-0.256479781666667
mp-1077750,YbCu4Pd,-0.395687440833332
mp-1077752,TbCu4Au,-0.33870220111111105
mp-1080384,DyInCu4,-0.316629750833335
mp-12007,HoCdCu4,-0.23912325583333402
mp-12008,ErCdCu4,-0.244247275
mp-12009,YbCdCu4,-0.27627158083333303
mp-1206022,TmCdCu4,-0.24521019500000002
mp-1206095,SmInCu4,-0.278086651666666
mp-1206262,ErInCu4,-0.32330896222222305
mp-1206278,NdInCu4,-0.25045154958333404
mp-1206430,DyCu4Pd,-0.37359270583333404
mp-1206479,YbTlCu4,-0.216676132499998
mp-1206691,TbCu4Pd,-0.367803625
mp-13172,YMgCu4,-0.222078840833333
mp-13240,ScInCu4,-0.2949053675
mp-2219028,Mg(CuO2)4,-1.018522744999999
mp-22229,TbInCu4,-0.312193425000001
mp-30587,MgInCu4,-0.10344702527777601
mp-3676,MgCu4Sn,-0.12155869500000001
mp-570769,CaInCu4,-0.18192813333333402
mp-867863,SmCu4Ag,-0.205667627499998
mp-30450,Mn3(CuBi)4,0.170178939655174
mp-760784,Li3Cu4F15,-2.005111902545447
mp-640286,CeCu4Sn,-0.07349996374999901
mp-1218988,SmYCu4,-0.234414791666668
mp-1224747,GdYCu4,-0.223225166666665
mp-1226542,CeYCu4,-0.18515620333333202
mp-753081,Li3(CuO)4,-1.299958595454544
mp-1225703,Cu4I3Cl,-0.191944331874999
mp-756163,Li2Cu4S3,-0.6713005449074071
mp-1120730,K3(CuS)4,-0.8461715806136361
mp-27321,Na3(CuS)4,-0.7928564603761741
mp-1208094,TlCu4Se3,-0.235057114023437
mp-1210159,Pr(Cu2P)2,-0.578799683231292
mp-1211723,La(Cu2P)2,-0.5419198053741501
mp-1214035,Ce(Cu2P)2,-0.5190312001360541
mp-21763,Nd(Cu2P)2,-0.590705461207481
mp-1101571,Cu4(PO4)3,-1.829454844680451
mp-21730,Cu4P2O9,-1.740482415785714
mp-21770,Cu4As2O9,-1.248004086000001
mp-504536,Cu4SnS4,-0.316626001111111
mp-559551,Cu4Bi4S9,-0.34131741178308905
mp-654109,BaCu4S3,-0.810136815312499
mp-683991,Cu4Bi4S9,-0.31981588119485305
mp-766447,Li2Cu4S3,-0.6282909362962961
mp-766453,Li2Cu4S3,-0.630868652962962
mp-1046562,Mg(Cu2O3)2,-1.192768767727273
mp-1046785,Zn(Cu2O3)2,-0.9502906081818181
mp-1046807,Ca(Cu2O3)2,-1.283417230454545
mp-27424,BaCu4S3,-0.8240477865624981
mp-1218338,SrCu4Ag,-0.066193649666667
mp-1226702,CeGaCu4,-0.26112830000000004
mp-1198520,Cu4SO12,-0.6448969219117641
mp-10244,Zr3(CuSi)4,-0.5582189327272721
mp-10245,Hf3(CuSi)4,-0.483039529090912
mp-1095537,Er3(CuSn)4,-0.486679820909089
mp-1095575,Y3(CuSn)4,-0.51197799
mp-1095653,Yb3(CuGe)4,-0.679375407727274
mp-1101786,Tm3(CuSn)4,-0.46993301181818303
mp-1101850,Ho3(CuSn)4,-0.49406506318182003
mp-1101887,Y3(CuSi)4,-0.6843484809090841
mp-1102095,Lu3(CuSi)4,-0.6031861945454541
mp-1102311,Sc3(CuGe)4,-0.5672963795454541
mp-1102425,Lu3(CuGe)4,-0.5948044963636361
mp-1102518,Tm3(CuSi)4,-0.684905152727274
mp-1103265,Y3(CuGe)4,-0.624807238181818
mp-1103415,Sm3(CuGe)4,-0.6207811022727271
mp-1104960,Sc3(CuSi)4,-0.6454735722727271
mp-1205488,Yb3(CuSi)4,-0.686017594090913
mp-1205497,Sm3(CuSn)4,-0.526168290454544
mp-1207635,Yb3(CuSn)4,-0.512586904090912
mp-1207677,U3(CuSi)4,-0.37523862109091705
mp-12732,Dy3(CuSi)4,-0.684120739545454
mp-20844,Dy3(CuSn)4,-0.505540211363632
mp-22039,Dy3(CuGe)4,-0.698802348636364
mp-22623,Ce3(CuGe)4,-0.5500083154545441
mp-31423,Ho3(CuSi)4,-0.6841016795454541
mp-3179,Tb3(CuSi)4,-0.6818103772727291
mp-3683,Ho3(CuGe)4,-0.622964346818179
mp-3852,Tb3(CuGe)4,-0.702769079090909
mp-4242,U3(CuGe)4,-0.366025671363641
mp-505292,Nd3(CuGe)4,-0.6583464247727251
mp-542881,Ce3(CuSn)4,-0.44612153636363505
mp-5454,Er3(CuSi)4,-0.6829082854545471
mp-567621,Er3(CuGe)4,-0.6223152781818191
mp-568519,Tm3(CuGe)4,-0.613424434545454
mp-571223,Tb3(CuSn)4,-0.517121778181817
mp-621619,Gd3(CuGe)4,-0.6204493281818181
mp-864792,Nd3(CuSn)4,-0.5304962093181801
mp-865734,Li5(Cu2P3)2,-0.5213463907460311
mp-975640,Pr3(CuSn)4,-0.5227151750000071
mp-1181901,Cu4SnP10,0.203566705349205
mp-530411,Cu4Sn7S16,-0.428261007716049
mp-685340,Cu4Sn15S32,-0.39563973421568105
mp-13967,Nb5(CuSi)4,-0.5321200861538451
mp-28995,Cu4SiP8,-0.17165926029304002
mp-1076189,Ba3Sr(Cu2O5)2,-1.8334593716666672
mp-1178316,Li19Cu4(HO2)8,-1.7003728830496452
mp-1216042,ZnCu4(WO4)5,-1.767459636833333
mp-1223612,Mg2V6Cu4O21,-2.09863951030303
mp-1225898,Cu4MoW3O16,-1.65761638625
mp-2217544,MgCu4(OF2)2,-1.7505372295454542
mp-2218584,MgCd2(Cu2O3)2,-1.108368507307692
mp-2219022,MgCu4(AsS)4,-0.345357698076923
mp-2219390,MgCu4(ClO)4,-1.136354051153846
mp-2228750,Y2Mg(CuO2)4,-1.9365061583333332
mp-2229154,Na4Mg(CuO2)4,-1.439294705912778
mp-2230644,Eu4Mg(Cu2O5)2,-2.155333080789474
mp-2230645,Sm4Mg(Cu2O5)2,-2.457431749210527
mp-2233288,MgZn2(CuO2)4,-1.308342997
mp-771172,Li5Cu4(BO3)4,-2.031183753333333
mp-2229460,Ba4Mg(CuO2)4,-1.836273670294117
mp-2229825,Ba4Mg(CuO2)4,-1.944654627352941
mp-2231500,La4Mg(Cu2O5)2,-2.366083872894737
mp-1223525,KLa7(CuO4)4,-2.775255038294643
mp-1193718,Cu4Br6N4O,0.6368049959999991
mp-1105938,K2Dy4Cu4S9,-1.654775573614033
mp-1106295,Rb2Gd4Cu4S9,-1.6435172180263131
mp-1172870,K2Ho4Cu4S9,-1.653754342210524
mp-1177697,Li3Cu4SbO8,-1.498093134375
mp-1177754,Li3Fe(CuO2)4,-1.390509073749999
mp-1181548,Cu4W(SCl)4,-0.48496634307692305
mp-1191505,UCu4(MoO8)2,-1.591669642608696
mp-1228271,Ba8Cu4Hg4O17,-1.911633699545455
mp-2218430,MgCu4(ClO3)2,-1.061791159615384
mp-2229886,MgCu4(SO5)2,-1.5350332717647062
mp-2232111,MgCu4(GeO4)2,-1.390832919
mp-672295,Cu4Bi5PbS11,-0.544333681071428
mp-754268,Li3Cu4TeO8,-1.379654605416666
mp-754273,Li3Co(CuO2)4,-1.355125085624999
mp-755755,Li3Nb(CuO2)4,-1.710313951874999
mp-756288,Li3Cu4SnO8,-1.501847707812499
mp-756343,Li3Cu4NiO8,-1.310991449375
mp-756800,Li3Cr(CuO2)4,-1.5308708656249999
mp-772309,Li3Ti(CuO2)4,-1.771613095208333
mp-774918,Li3La14(CuO7)4,-3.137072320204081
mp-863763,K2Y4Cu4Se9,-1.499322636610196
mp-977368,K2Dy4Cu4Se9,-1.501596021171599
mp-2240539,MgTi(CuS)4,-0.5944023958333331
mp-1099602,Ba3Sr(CuO3)4,-1.679816311999999
mp-1215887,YU(CuSi)4,-0.400174969999999
mp-1217359,ThU(CuSi)4,-0.381169577999998
mp-1225580,LaCe(CuSi)4,-0.601600645500008
mp-1209832,Nd3Cu4(P2O)2,-1.463308204697801
mp-1213889,Ce3Cu4(P2O)2,-1.526837387582416
mp-6309,La3Cu4(P2O)2,-1.542299241043956
mp-672345,Cu4W(SCl)4,-0.47157914923076805
mp-1192549,Ba2U(Cu2Se3)2,-1.223446267235575
mp-1202297,Cu4H6SO10,-1.216632803690476
mp-1203302,Na7Cu4(AsO4)5,-1.6936524581154222
mp-14455,Cu4Ag(AsO4)3,-1.270682493458333
mp-21578,KCu4(AsO4)3,-1.4332344394875
mp-26741,LiCu4(PO4)3,-1.9577153158630942
mp-542185,NaCu4(AsO4)3,-1.432031734693966
mp-561512,K4Cu4Cl10O,-1.493554024157893
mp-769256,Li4Cu4Cl10O,-1.349348990701754
mp-1046963,BaZn(CuO2)4,-1.167062777142856
mp-1046980,BaCa(CuO2)4,-1.4310998928571421
mp-1216372,VFe3(CuO2)4,-1.450328525625
mp-1221859,Mn2InCu4Sn,0.07454132536843
mp-1226279,CrCu4NiSn2,0.1326474575
mp-2218499,MgCu4(ClO3)2,-1.112801688076923
mp-554071,Na8Nb2Cu4S21,-0.940423624672412
mp-1048115,BaYCu4O7,-1.731642599999999
mp-601817,Cu4H3C2N5,-0.024672684910714
mp-559141,Ba5Cu4ClF17,-3.08755935462963
mp-2900776,LiCu4(PO4)3,-1.80425103840476
mp-1202558,Cu4As3PbO12,-1.382804926125
mp-2229481,Ba4Mg(CuO2)4,-1.9462286685294121
mp-2229811,Na4Mg(CuO2)4,-1.354371788265719
mp-559343,KCu4(PO4)3,-1.978874759808928
mp-669578,Rb2Gd4Cu4S9,-1.653541321184208
mp-673145,LiCu4(PO4)3,-1.945430224863095
mp-766013,Li2Cu4Si4O13,-2.242526327028986
mp-1203055,Ho2Cu4Br13N3,-0.43875514568181706