material_id,formula,formation_energy_per_atom
mp-1208317,TbGa2Ag,-0.5163901227083311
mp-1212683,EuMgAg,-0.25962592638889004
mp-1215062,AgI3N2,0.9164524768055551
mp-1232346,Cr2AgS4,-0.7190946930952371
mp-1239177,Cr2AgS4,-0.727102529880951
mp-1245682,FeAgN,0.24894619444444402
mp-1369873,YAgO3,-2.084660176333332
mp-23399,Rb2AgI3,-1.290396494861111
mp-29238,TlAgSe,-0.312412854687498
mp-29693,Rb2AgCl3,-1.764678433194443
mp-30203,Sc6AgTe2,-0.692707156388888
mp-4308,PrAgAs2,-0.7611780233333331
mp-4807,AgAsF7,-2.1067146368518532
mp-540881,Cs2AgI3,-1.320910873079503
mp-567459,AgC2N3,0.227642105972222
mp-567714,Rb2AgBr3,-1.576850249027777
mp-569414,Lu6AgTe2,-0.7099140274999991
mp-569943,K2AgI3,-1.262457217694445
mp-5874,TlAgTe,-0.35272851805556105
mp-640052,Cs2AgBr3,-1.598892396412833
mp-642238,Y6AgTe2,-0.7489502063888861
mp-662534,AgIrF7,-1.490580648333332
mp-752725,LiAgF2,-2.056254772916668
mp-752793,Li2AgF3,-2.398338243888886
mp-753009,Li2AgF3,-2.396925612638887
mp-753299,LiAgF2,-2.060694364791667
mp-755991,AgBrO4,-0.15986117986111
mp-760805,Li2AgF3,-2.398906324305553
mp-849271,AgIO3,-0.685598791833332
mp-864793,NdAgAs2,-0.9020029099999961
mp-867175,SmAgAs2,-0.895839380624998
mp-984714,AgAsS,-0.112578582395831
mp-985442,AgAsSe,-0.218942903836805
mp-1025390,LaSi2Ag,-0.5867863012499971
mp-1025554,PrSi2Ag,-0.508420734583332
mp-1080480,CeSi2Ag,-0.499570707916666
mp-1096933,CsAgO2,-1.005998602830459
mp-1205362,NbAgO3,-2.167828127333333
mp-1206055,NdSi2Ag,-0.550971238125001
mp-1247213,CoAgN,0.32257595444444503
mp-1279432,MnAgO2,-1.430982611774425
mp-23454,CsAgBr2,-1.342807492830461
mp-27549,K2AgBi,-0.414086274374998
mp-542772,CsAgCl2,-1.393852904999999
mp-5821,TaAgS3,-0.9555403932999991
mp-7392,Na2AgSb,-0.44746044374999905
mp-754959,CrAgO4,-1.195661571944445
mp-758134,Li2AgF5,-2.124950253541666
mp-758302,LiAgF2,-2.091666950416668
mp-759198,Li2AgF3,-2.41361074472222
mp-7642,K2AgAs,-0.384078838416666
mp-7643,K2AgSb,-0.5024591443749991
mp-776166,AgPdO3,-0.174272703333333
mp-8411,Na2AgAs,-0.476849584375001
mp-9778,K2AgP,-0.43898535886904705
mp-996979,BaAgO2,-1.7076398941666642
mp-997052,RbAgO2,-1.009309497291665
mp-997088,KAgO2,-1.021018559729165
mp-998429,NiAgF3,-1.761972439000003
mp-1101631,AgClO2,0.049375238333333
mp-1211955,K2AgF4,-2.331986947309523
mp-1245647,ZnAgN,0.27236002127193104
mp-510565,Cs2AgF4,-2.303777902142857
mp-542627,Fe2AgS3,-0.505695326527777
mp-985705,CeAgAs2,-0.7764827454166651
mp-1206226,Ag(BiTe2)3,1.105454834906254
mp-1207284,Ag(BiSe2)3,1.19318131217359
mp-1215094,Ag(AsSe2)3,1.099221675177083
mp-557680,NbAgO3,-2.147974619333333
mp-675095,NbAgO2,-1.5623869583333332
mp-752699,LiAgF3,-2.013326686833335
mp-755834,AgSnO3,-1.349847933333332
mp-775774,AgBiO3,-1.024969332333334
mp-776150,ScAgO3,-2.110980848333333
mp-867844,RbAgF3,-2.015323454833333
mp-997005,CaAgO2,-1.888634117916665
mp-1079156,AgClO2,-0.050428077916666
mp-552169,AgClO2,-0.09205651541666601
mp-997004,CaAgO2,-1.902973244166665
mp-29570,Ca2Si3Ag,-0.513929418333333
mp-1232472,CrAgS2,-0.7252069747916651
mp-1191372,Eu2Si3Ag,-0.518799680277779
mp-9867,Ba2Si3Ag,-0.43518952444444103
mp-1068053,Ca2AgPd2,-0.604550230999998
mp-1093545,TlAgPd2,1.474545596607146
mp-1093547,Ba2AgHg,0.9429125314583321
mp-1093561,Sr2AgPd,0.866641442083334
mp-1093613,Y2AgHg,1.855653416875004
mp-1093656,Ca2AgRh,1.206425002777777
mp-1093664,Sr2AgPb,0.935672948437499
mp-1093668,Ca2CdAg,1.072427987083334
mp-1093723,La2AgHg,1.7975104843750032
mp-1093739,ZrAgHg2,1.62700063333333
mp-1093755,CaCd2Ag,0.9148967870833351
mp-1093771,Sr2ZnAg,1.092212538312502
mp-1093788,Mg2AgPd,1.106520764583334
mp-1093802,LiAgPd2,1.70810596958333
mp-1093824,Ba2AgPd,0.8743772670833341
mp-1093860,Li2GaAg,0.957601880416664
mp-1093889,Li2ZnAg,0.869148132916666
mp-1093894,ZnAgPd2,1.6674672920833342
mp-1093900,Zn2AgPt,1.258729457083334
mp-1093931,Ba2CdAg,1.072896072083334
mp-1093938,Be2AgPt,1.7988462120833342
mp-1093949,Ba2TlAg,1.095217913749998
mp-1095753,La2TlAg,1.8131648837499972
mp-1095787,ScAgPd2,1.356266241583334
mp-1095790,Mg2ZnAg,1.014629419583334
mp-1095806,LiIn2Ag,0.999973862083333
mp-1095823,Zn2AgIr,1.757787045833332
mp-1095853,Y2CdAg,2.085747072083334
mp-1095857,Sc2AgPd,1.751440723749997
mp-1095891,Sr2AgSb,0.6835075270833341
mp-1095921,LiZn2Ag,0.8372321183750141
mp-1095943,AgSbPd2,1.640343308958336
mp-1095961,NaIn2Ag,0.9270765123922011
mp-1095964,Zn2AgPd,1.107133849583334
mp-1095967,La2AgOs,1.867419972083332
mp-1095988,Sr2AgHg,0.845680778958332
mp-1096035,Ca2TlAg,1.113214154999997
mp-1096039,MnAgPd2,1.997005070100575
mp-1096041,YCd2Ag,1.452173097083334
mp-1096056,InAgPd2,1.747982333750002
mp-1096116,LiGa2Ag,1.106786136208334
mp-1096118,ScCd2Ag,1.387192921250001
mp-1096155,LiAgPb2,1.236656346250002
mp-1096168,Ca2ZnAg,1.137760694583334
mp-1096169,Cd2AgPt,1.247775422083335
mp-1096181,Ca2GaAg,1.210556251249999
mp-1096233,YAgPd2,1.54556108625
mp-1096241,MgSc2Ag,2.162930965833334
mp-1096301,MgAgPd2,1.667733783333333
mp-1096314,La2AgPb,1.706765694583333
mp-1096319,Zr2TcAg,3.006397017187502
mp-1096322,Sc2AgRh,1.754206132083334
mp-1096330,LiAgHg2,0.46983447854166704
mp-1096334,Ti2AgMo,3.111573070833337
mp-1096339,Y2AgPd,1.751054106250002
mp-1096346,Li2MgAg,0.941983219166667
mp-1096363,Sc2AgPt,1.6347075720833342
mp-1096371,Mg2AgHg,0.8137703364583321
mp-1096381,AgSnPd2,1.524319605208333
mp-1096457,Hf2ReAg,3.475862473958334
mp-1096465,Sr2CdAg,0.9789930920833341
mp-1096516,Ca2AgPd,0.9443687553125011
mp-1096577,Li2AgGe,1.126213156666667
mp-1096651,Mg2CdAg,0.9452606745833341
mp-1096653,Y2AgPb,1.742503997624215
mp-1096672,Sc2AgPb,1.794070969732139
mp-1096684,Li2CdAg,0.780657140416666
mp-1096703,NaTl2Ag,0.908565635694447
mp-1096708,NaAgPd2,1.589206733125003
mp-1096709,Cd2AgPd,1.064235392083335
mp-1096741,Y2GaAg,2.065036022708334
mp-1097083,Sc2ZnAg,2.038893617083333
mp-1097092,Y2AgRh,1.783080582083334
mp-1097134,La2CdAg,1.9439718695833332
mp-1097189,Sr2AgSn,0.9737184953125001
mp-1097206,Sc2AgSn,1.8137331300892932
mp-1097232,Y2ZnAg,2.084581122500003
mp-1097271,LiY2Ag,2.150655251250001
mp-1097284,AgSnRh2,2.282270010833334
mp-1097341,LaCd2Ag,1.411360965833334
mp-1097365,Ba2ZnAg,1.168252914583333
mp-1097380,LiCa2Ag,1.265454027083333
mp-1097424,YZn2Ag,1.517540789510871
mp-1097442,Li2AgAs,0.70401470328125
mp-1097472,ScAgHg2,1.165391724635416
mp-1097475,Sr2AgBi,0.684280260902781
mp-1097501,NaCd2Ag,0.6871881892385071
mp-1097539,AgPd2Pb,1.55034147841145
mp-1097554,Zn2AgRh,1.4639583358333361
mp-1097591,Mg2InAg,1.142579010416667
mp-1097606,Zr2InAg,2.743548411249996
mp-1097683,Y2AgOs,2.285145984218751
mp-1210596,Nb14AgO36,-2.912405788464053
mp-1221198,Na4AgCl5,-1.7425601037499998
mp-1101326,Ta3AgO8,-2.924063244055554
mp-16837,Nb3AgO8,-2.657896582222223
mp-3527,Na3AgO2,-1.258432925967428
mp-9634,Na3AgS2,-1.024525277604166
mp-2646989,AgAsBr4,-0.7347869206944441
mp-35909,AgBiI4,-0.6252693061111111
mp-1216494,V6AgO15,-2.17276327030303
mp-1216506,V4AgO10,-2.11993409211111
mp-1218537,SrAgGe,-0.45268005580952403
mp-1227685,Ca2Zn3Ag,-0.305917126944445
mp-1232870,CrAgS2,-0.7275030629166651
mp-2016808,AgHO2,-0.4000998990625
mp-559736,VAgO3,-1.754956429833332
mp-675376,HoAgSe2,-1.392939750338539
mp-676284,YAgSe2,-1.38369469453125
mp-996958,AgHO2,-0.728314120729166
mp-998152,TlAgF3,-1.606880417875004
mp-998154,TlAgBr3,-0.813689626000001
mp-998212,RbAgBr3,-1.209148418833332
mp-1025331,In2AgSe4,-0.49541577952008703
mp-1194592,AgI3O8,-0.753021275972222
mp-33449,Tb5AgS8,-2.11290062392857
mp-33775,La5AgSe8,-2.098141987321428
mp-34486,Pr5AgS8,-2.099722959999998
mp-35264,Pr5AgSe8,-1.9467100670535742
mp-35512,Dy5AgS8,-2.102762908571425
mp-36592,Nd5AgSe8,-1.9635918832142831
mp-37449,Nd5AgS8,-2.113159675446425
mp-37478,La5AgS8,-2.22829787172618
mp-37923,Sm5AgS8,-2.114166379761904
mp-38805,Sm5AgSe8,-1.9496743074627871
mp-675643,Ce5AgS8,-2.068612170119046
mp-676143,Ce5AgSe8,-1.899057999315475
mp-676156,Gd5AgS8,-2.120556462261904
mp-685977,Gd5AgSe8,-1.901959810982142
mp-5160,AgBF5,-2.276470174642857
mp-1215022,AgSbO12,-0.069227994404761
mp-27941,AgClO3,-0.40724466733333303
mp-28586,AgXeF9,-0.9632662992424241
mp-1214906,AgMoO4,-1.309937523611111
mp-30037,AgIO4,-0.544691771111111
mp-7094,ReAgO4,-1.707686205694444
mp-7206,TcAgO4,-1.525970481111109
mp-756342,AgBrO4,-0.18197272694444402
mp-761035,AgRuO4,-1.012188526944443
mp-1182950,AgSbS2,-0.168058643906249
mp-1205392,AgSbS2,-0.249060472031249
mp-1232653,CrAgS2,-0.725153482916664
mp-556916,GaAgS2,-0.6173777514062481
mp-627601,AgSbS2,-0.153785503906249
mp-675977,AgBiS2,-0.26199175807292
mp-18262,HoAgS2,-1.565599189166663
mp-2757874,YAgS2,-1.54542751796875
mp-2759849,SmAgS2,-1.527723272968746
mp-1217282,Th4AgPd,-0.27809478527777404
mp-998226,RbAgBr3,-1.2089664068333321
mp-998554,KAgCl3,-1.186842439249999
mp-998568,KAgBr3,-1.170943683783332
mp-998610,TlAgCl3,-1.011150190999998
mp-1042188,Zn2AgWO6,-1.600054833166665
mp-1047193,Mg2AgWO6,-2.145787471166667
mp-1047208,Ca2AgWO6,-2.361840363166666
mp-1215695,Zn3GaAgS5,-0.8124821436205331
mp-1215730,Zn3InAgS5,-0.785811757620534
mp-1216213,ZnAgPO4,-1.996423915544217
mp-1224946,GaAgGeS4,-0.6982349820238081
mp-1229066,AgMo6(SeS)4,-0.603789096944444
mp-1238848,TiCrAgS4,-0.9332524817857131
mp-1238865,TiCrAgS4,-1.076202752499999
mp-1238895,TiCrAgS4,-0.9193238646428561
mp-1238897,TiCrAgS4,-0.9240689328571421
mp-1239241,HfCrAgS4,-0.9913611995238081
mp-1239243,HfCrAgS4,-1.008878551666665
mp-1246474,ZrCrAgS4,-0.994242710952379
mp-1246696,ZrCrAgS4,-1.010510150416665
mp-1246709,ZrCrAgS4,-0.9801158963095221
mp-1246982,HfCrAgS4,-1.022509908809522
mp-1246990,HfCrAgS4,-1.193505376666665
mp-1247411,ZrCrAgS4,-1.161636601309522
mp-1275604,CoAgPO4,-1.859873944829932
mp-1390540,Ca2AgWO6,1.657107017833334
mp-664362,NaAg(NO2)2,-0.8289449510057461
mp-666157,K2VAgS4,-1.181183847645832
mp-667508,AgC3N3O2,-0.040525574004629
mp-671861,K2VAgSe4,-1.076781368192707
mp-672118,K2TaAgS4,-1.264593837937499
mp-672158,K2NbAgS4,-1.226998288895832
mp-672695,KAgCO3,-1.584039841069444
mp-683308,Rb2VAgSe4,-1.094502807005207
mp-1204763,AgN2ClO4,1.016352630416666
mp-1216979,TiCrAgS4,-1.096793904999999
mp-1238850,TiCrAgS4,-1.103585497857142
mp-1239262,HfCrAgS4,-1.213908450238094
mp-1246815,ZrCrAgS4,-1.183275455238094
mp-1246998,HfCrAgS4,-1.21071842595238
mp-1247190,ZrCrAgS4,-1.1802952195238081
mp-1223690,KAgSnSe3,-0.8178427564079821
mp-1102571,AgH3BrN,-0.52785920423611
mp-1238851,TiCrAgS4,-0.9706826414285701
mp-1246369,HfCrAgS4,-1.115866607380951
mp-1247002,ZrCrAgS4,-1.157463835238094
mp-1329037,Mg2AgSbO6,-1.907027494666666
mp-1344766,Zn2AgSbO6,-1.366911491166666
mp-1346992,Ca2TaAgO6,-2.683182820399999
mp-1374044,Ca2AgSbO6,-2.183374302666666
mp-1376543,Mg2TaAgO6,-2.411180924399999
mp-1377924,TaZn2AgO6,-1.8639964069000001
mp-16185,Mn6AgP7O24,-2.503213723993497
mp-17427,AgMo3(PO7)2,-2.096760121047618
mp-554842,Cs5Si3AgO9,-2.501421636385697
mp-558368,AgBi2S3Cl,-0.707342042023809
mp-569939,AgBi2Se3Cl,-0.49585717090774606
mp-6781,AgCNO,-0.509478052916667
mp-9780,RbHfAgTe3,-0.98028485986111
mp-1222747,LaTa2AgO7,-3.085698859666666
mp-1222828,LaNb2AgO7,-2.893975026515151
mp-1095340,BaTbAgS3,-1.8577642393055531
mp-1191037,AgAs(SeF2)3,-1.6399032428361742
mp-1192345,AgBi(WO4)2,-1.854503409305555
mp-1207659,YAg(WO4)2,-2.364985081388889
mp-1207873,VAg(SO4)2,-1.843689899722222
mp-1208042,TmAg(WO4)2,-2.379088800555556
mp-1210947,LuAg(WO4)2,-2.375720084027777
mp-1212668,GaAg(SO4)2,-1.741106626180554
mp-1212721,FeAg(SO4)2,-1.653559416388888
mp-1212867,GdAg(WO4)2,-2.360401465555556
mp-1213000,EuAg(WO4)2,-2.190667383055556
mp-1213773,CrAg(SO4)2,-1.7888988488888882
mp-1213933,CeAg(WO4)2,-2.339730888472221
mp-1214944,AgRh(SO4)2,-1.462700816388887
mp-1215004,AgBi2WO8,-1.396247751805556
mp-14651,Zr2AgPdF11,-3.127832708444444
mp-17335,ErAg(WO4)2,-2.378641556805554
mp-2216574,Zn2AgWO6,-1.608238444166665
mp-2231955,MgTi6AgS12,-1.5591923093333322
mp-558217,CsAg(NO3)2,-1.060001363132184
mp-559025,BaErAgS3,-1.855728303194443
mp-647969,CoAg(CO)4,-0.713803348416666
mp-1079848,GaFe2AgTe4,-0.206555738229166
mp-1206353,Zn2GaAgSe4,-0.811317777317708
mp-1215550,Zn2InAgTe4,-0.5803853531249981
mp-1217194,Ti2AgBiO6,-2.464096025833334
mp-1221883,Mn2InAgTe4,-0.398591333857758
mp-1226959,Cd2InAgTe4,-0.465460899999999
mp-1208234,Th2AgP2O,-0.32426185932539403
mp-1211374,La2AgS2O,-0.9937852652777781
mp-1214752,Ba2AgTe2F,-0.923180489999999
mp-1223756,In2AgTe3Br,-0.529491627142855
mp-1223758,In2AgTe3Cl,-0.44342251642856906
mp-1228993,AgSbSeS,-0.143536025156247
mp-1229007,AgSbTeSe,-0.298649990169269
mp-1229083,AgBiTeSe,-0.19139020476562502
mp-1229089,AgBiSeS,-0.20779339595485802
mp-2210644,MgNbAgO3,-1.507611806944444
mp-2224451,BaMgAgO2,-1.035362407333333
mp-571164,Rb3AgSn3Se8,-0.917866301527776
mp-571594,K3AgSn3Se8,-0.912112711144444
mp-1181889,CoAg(N3O4)2,0.011782941145833
mp-1198670,CoAg(N3O4)2,0.100047824270833
mp-725643,CoAg(N3O4)2,0.12341509677083301
mp-1078562,SrAgSF,-2.221776139453126
mp-1079647,BaAgSeF,-2.263063682252604
mp-1079993,ThAgPO,-2.045248737827379
mp-1080438,SrAgTeF,-2.160155414583333
mp-1086652,BaAgSF,-2.250060911041666
mp-1210457,NaCeAgTe4,-1.028815571387519
mp-16742,BaAgTeF,-2.183376328333333
mp-22621,LaTiAgO4,-2.950561660714286
mp-559470,AgPbBrO,-1.007267071666665
mp-6625,LaAgSO,-2.303094082291666
mp-1212730,FeAg(MoO4)2,-1.690706718055555
mp-1376266,YAg(WO4)2,-2.356633354305555
mp-557592,CrAg(PS3)2,-0.646436608595232
mp-560403,InAg(WO4)2,-1.902841799861112
mp-6462,VAg(PS3)2,-0.678684387095236
mp-1229081,AgSb(PbS2)2,-0.534248575208331
mp-1229237,AgSb(Te8Pb7)2,-0.559763038697914
mp-1041232,BaMgAgF7,-2.911876106166666
mp-1041309,BaZnAgF7,-2.560656872166666
mp-1041316,BaCaAgF7,-3.012488982916666
mp-1044006,MgAgBiO5,-1.386009625833334
mp-1044097,ZnAgBiO5,-1.013288228958334
mp-1044106,CaAgBiO5,-1.509147646458333
mp-1192874,NaAgS2O3,-1.413518209720852
mp-1193999,ZnAgPO4,-2.027847735187074
mp-1194388,VAgOF4,-2.357788767738095
mp-1195568,Ba4InAgS6,-1.8003721956944432
mp-1195701,TlAgPSe3,-0.301304275443949
mp-1196972,KAgPSe3,-0.7198786620429061
mp-1197611,Ba2InAgS4,-1.519280083229166
mp-1198276,AgSb3PbS6,-0.5472571222537861
mp-1201392,V2Ag(PO5)2,-2.337035380396824
mp-1201842,K5Ag(S2O3)3,-1.7032420414484122
mp-1201897,VAgP2O7,-2.4013978359956702
mp-1202277,CeAg(PO3)4,-2.692738689874338
mp-1202376,FeAgP2O7,-2.192921456904761
mp-1202574,AgS2(O3F)2,-1.673621897651514
mp-1204248,InAgP2O7,-2.2732333770562763
mp-1207494,ZnAgPO4,-2.002384780782312
mp-1208132,TlAg(PO3)2,-2.121469591678572
mp-1209320,RbAgTeS3,-0.650835910555554
mp-1209385,RbAg(PO3)2,-2.329068868845239
mp-1210534,NaAgTe5O14,-1.423405581851385
mp-1211732,KAgTeS3,-0.6381697509305541
mp-1211783,KAgTeS3,-0.640841080513887
mp-1214977,AgC4(BrO)2,-0.46911551351851805
mp-1324912,Mg2AgWO6,-2.135750741166666
mp-1369774,Ca2AgWO6,-2.375763975666666
mp-1378705,Zn2AgWO6,-1.582837516666666
mp-14029,AgMoPO6,-1.98110573542328
mp-14973,AgMo2P3O13,-2.26242919858396
mp-15919,BeAgPO4,-2.377695446496598
mp-18429,KAg(NO3)2,-1.053053297391665
mp-22665,AgAsPbS3,-0.49983294361111
mp-24072,AgH5S2O9,-1.44861504502451
mp-541041,NdAg(PO3)4,-2.711514133902115
mp-541915,K2Ag(AsSe2)3,-0.6917360118940971
mp-541916,Rb2Ag(AsSe2)3,-0.70040900047743
mp-555526,RbAg(NO3)2,-1.056312871916667
mp-556965,NpAgSeO5,-2.023955403157551
mp-557540,Rb2AgSbS4,-0.8879440811458321
mp-557874,KAg(PO3)2,-2.330342446070238
mp-558152,GdAg(PO3)4,-2.704469561957672
mp-558241,TaTl2AgS4,-0.8669619891458351
mp-558465,LaAg(PO3)4,-2.728553837374338
mp-559573,UAgIO6,-1.966903358935184
mp-560848,AgSbPbS3,-0.537381230694443
mp-562172,CoAg(NO3)3,-0.8487503960118931
mp-569378,Rb3Ta2AgSe12,-1.019109294275463
mp-605863,AgSbPbS3,-0.505611512361109
mp-621981,TlAg(CN)2,0.257564576180551
mp-622619,UVAgO6,-2.566959402962963
mp-645743,VAgTeO5,-1.641256086354165
mp-726944,AgC2S2N3,0.9626752787639531
mp-865980,CsAgPSe3,-0.7488115259159911
mp-554766,AgP(XeF5)2,-1.801092190807823
mp-557631,AgAs(XeF5)2,-1.6047670449404752
mp-1178119,LaNb2AgO7,-2.893663071287879
mp-1216221,Y6Ag(GeS7)2,-1.7046826715942012
mp-1224168,Ho6Ag(GeS7)2,-1.7040003711594172
mp-1225417,Dy6Ag(GeS7)2,-1.7140736498550702
mp-1225741,Er6Ag(GeS7)2,-1.698505260724636
mp-1229112,AgMo12PbS16,-0.9030155527222221
mp-569126,AgBi(PSe3)2,-0.46588106450148803
mp-6814,AgCNO,0.07187308624999901
mp-1183029,AgC3N3O2,-0.038898965324075004
mp-1190401,BaAgSbS3,-1.118060334027777
mp-1194446,Na5AgGe2S7,-1.03734780407088
mp-1194585,AgP(OF)2,-2.26173536438492
mp-1197075,Zn3Ag(AsO4)3,-1.47541635258772
mp-1199633,Cs3Ag(AsSe2)4,-0.7500006694926361
mp-1199846,AgSb3IF24,-2.261820224712643
mp-1202255,AgSb(SeF3)2,-1.9167766799687491
mp-1203083,Tl3Cr4AgO14,-1.493457825530303
mp-1203651,Co3Ag(AsO4)3,-1.36905366495614
mp-1210225,Na5AgGe2Se7,-0.9514180099979641
mp-1211316,KV2AgO6,-2.091293911891667
mp-1222017,Mn3Ag(PO4)3,-2.285945361283597
mp-18853,TlV2AgO6,-1.896817975
mp-21705,K2In3AgSe6,-0.9816662723107631
mp-554259,SrAgB7O12,-2.775671727896826
mp-554408,CsAgSb4S7,-0.6540880306786021
mp-554930,Nb2AgPS10,-0.8964081025935381
mp-556837,AgAs(S8F3)2,-1.08640704392361
mp-559602,AgSb(S8F3)2,-1.14026821361111
mp-567890,AgHg3As2Cl3,-0.41279854796296406
mp-568422,NaAg(CN)2,-0.036525504340277
mp-6050,AgCSN,0.12238370623326301
mp-680403,K2In3AgSe6,-0.9731110039774291
mp-1189095,AgP(NO)2,-0.6003492693849201
mp-1201100,CeAgS2O9,-1.999942153717949
mp-1217412,TbZnAgAs2,-0.6134576366666661
mp-1218973,SmZnAgAs2,-0.624403240333333
mp-1218979,SmZnAgP2,-0.6715737851904741
mp-1219712,PrZnAgAs2,-0.623803457666667
mp-1219728,PrZnAgP2,-0.659099192523808
mp-1222704,LaZnAgP2,-0.842167952273808
mp-1222706,LaZnAgAs2,-0.6840891263333331
mp-1226468,CeZnAgP2,-0.648936290190474
mp-1226469,CeZnAgAs2,-0.6022511193333321
mp-1198460,Ba7Ga5AgSe15,-1.5905352678329612
mp-1204157,AgSNO3,-0.314562336805555
mp-16000,Cs5Ti6AgSe27,-1.170046525723686
mp-16001,Rb5Ti6AgSe27,-1.157896253524305
mp-570021,Ti6Tl5AgSe27,-0.9553241318362721
mp-1236209,LiAgClO4,-0.472407040714285
mp-2210649,MgCoAgO2,-1.273560041333333
mp-2210754,MgFeAgO2,-1.374158557333333
mp-2225602,MgNiAgO2,-1.208656793333332
mp-2226405,MgFeAgS2,-0.46709596033333206
mp-2226784,MgFeAgS2,-0.48057143633333205
mp-2227269,MgFeAgS2,-0.49580906833333205
mp-2227498,MgNiAgO2,-1.158845167333332
mp-2228220,MgFeAgS2,-0.527172502333332
mp-1202534,Ca10Ag(PO4)7,-3.2201642245471
mp-13383,ScAg(PSe3)2,-0.805521450501487
mp-13384,ErAg(PSe3)2,-0.833160903001487
mp-13385,TmAg(PSe3)2,-0.6726817135327391
mp-20902,InAg(PSe3)2,-0.503013941668154
mp-22661,InAg(PS3)2,-0.42632283578273805
mp-582994,KAg(CN)2,-0.073960151840278
mp-7008,GaAg(PSe3)2,-0.48769546725148705
mp-8616,ScAg(PS3)2,-0.954016906095236
mp-1223080,La2Ti3AgO9,-3.306725961111111
mp-1223776,In2AgSe3Cl,-0.677853729598209
mp-1223994,In2AgSe3Br,-0.7708357402901771
mp-1224031,In2AgSe3I,-0.67568522814732
mp-1224043,In2AgS3Br,-0.812876608928569
mp-1224076,In2AgS3Cl,-0.8779580432142841
mp-1190457,Ba3UAgS6,-1.903540171060604
mp-12362,AgHg3SbO6,-1.005880865833335
mp-17155,La3AgSnSe7,-1.6749259302560762
mp-17389,Pr3SiAgSe7,-1.615457535256076
mp-17719,La3SiAgS7,-1.897706837013888
mp-17827,Nd3SiAgSe7,-1.6107653583810762
mp-18071,Ce3SiAgSe7,-1.557959609422742
mp-542888,La3AgSnS7,-1.7935577528472222
mp-617632,La3AgGeS7,-1.809153059930555
mp-6485,La3SiAgSe7,-1.719268846506076
mp-862792,Pr3AgGeS7,-1.7066765528472212
mp-863032,Sm3SiAgS7,-1.7817815928472212
mp-863751,Pr3SiAgS7,-1.7942819311805551
mp-864666,Nd3SiAgS7,-1.7488467235156242
mp-866604,Ce3AgGeS7,-1.6448545078472199
mp-866605,Ce3SiAgS7,-1.753894574513887
mp-1207441,Zr3AgHg3F20,-2.9631473068209893
mp-1212249,Hf3AgHg3F20,-3.043328345709878
mp-1214066,Ca3Hf3AgF20,-3.912165024691358
mp-1214992,AgW6CCl18,-0.855049726794872
mp-554342,Hf3Cd3AgF20,-3.311825106728395
mp-555315,Zr3Cd3AgF20,-3.229559668024691
mp-10070,BaAg(PO3)3,-2.6251055987925183
mp-1229143,AgMoAsO6,-1.545089119629629
mp-1357139,ZnAgAsO5,-1.250092923333332
mp-1361234,CaAgAsO5,-1.763352949270833
mp-1362377,MgAgAsO5,-1.544698606770834
mp-15750,TaAgP4O13,-2.591102061977443
mp-16552,MnAg(PO3)3,-2.3758461765018772
mp-23140,AgHgSI,-0.426432127916667
mp-1046755,Mg2Nb2AgO8,-2.612120112820513
mp-1047110,YAg(WO4)2,-2.328499878472222
mp-1105212,Rb2AgPS4,-0.9908134589136891