material_id,formula,formation_energy_per_atom
mp-774644,Li11V12(CuO4)12,-1.936422995742972
mp-1216456,VCu12As3S16,-0.5404441541406251
mp-1199290,Cs6U2(Cu4S5)3,-1.061458859298029
mp-1203307,Rb6U2(Cu4S5)3,-1.054999649357141
mp-559811,K6U2(Cu4S5)3,-1.044244286957141
mp-1225921,Cu12Sb3AsS16,-0.461140863671874
mp-1226426,Cu12Mo3S5O36,-1.4340394265625012
mp-1228347,Ba6Nd2Y(CuO2)12,-2.021162054333333
mp-1218827,Sr9Nd3Cu12(PbO4)8,-1.994580696757811
mp-1228323,Ba8CaY3(CuO2)12,-2.180111817291667
mp-1228902,Ba6Pr2Y(CuO2)12,-2.017598062740741
mp-1216428,VCu12Sn(AsS8)2,-0.5472924621875
mp-1228207,Ba6Pr2Y(CuO2)12,-2.015385306296297
mp-1228958,Ba8PrY3(Cu3O7)4,-2.167776246955128
mp-1228560,Ba6Nd2Y(CuO2)12,-2.028219808555555
mp-1228680,Ba6Pr2Y(CuO2)12,-2.022221609185185
mp-1218823,Sr8CaY3Cu12(PbO4)8,-2.028689340624999
mp-32857,Cu13Se8,-0.104366369642859
mp-1194443,LaCu13,-0.07948058000000101
mp-642,BaCu13,-0.007521177499999001
mp-684621,Cu13I15,-0.337228590892857
mp-530658,Ta24Cu13O72,-2.753752039412845
mp-686085,Sc13Cu13O33,-2.497786070677966
mp-1044487,Cu13Si2(SbO14)2,-0.898826280888888
mp-1195387,V4Cu13(O13F2)2,-1.3673316414893621
mp-1244564,Cu13Si2(SbO14)2,-0.9082231757777771
mp-1227624,Fe2Cu13(GeS8)2,-0.520023898636362
mp-1202812,VCu13As3S16,-0.5259184670454551
mp-1044636,Y4Cu13Si2(SbO14)2,-1.813810219387753
mp-720486,VCu13Sn(AsS8)2,-0.5639669288636361
mp-1216515,VCu13Sn(AsS8)2,-0.564142797424242
mp-685100,Cu14I19,-0.28798523045454505
mp-28656,Tl5(Cu7Se5)2,-0.253402974849128
mp-685833,Sc14Cu14O37,-2.468931923307692
mp-14266,Cu15Si4,-0.076879631052632
mp-1216350,Y6Cu15P16,-0.44580416138835105
mp-1220816,Nb2V3(Cu3S4)5,-0.8511451694999991
mp-1219719,Sm4V20(CuO4)15,-2.139869245454545
mp-1221582,Na4V20(CuO4)15,-1.916685713187043
mp-1228903,Ba10Y5Cu15O34,-2.187772456875
mp-1229045,Ba10Ho5(Cu5O11)3,-2.206998949047619
mp-1229067,Ba10Y5Cu15O32,-2.205913781612903
mp-1229106,Ba10Y5(Cu5O11)3,-2.193309195
mp-1229115,Ba10Sm5(Cu5O11)3,-2.186716563333333
mp-1229149,Ba10Er5Cu15O34,-2.2040535434375
mp-1229210,Ba10Er5Cu15O34,-2.204404043437501
mp-1229263,Ba10Y5Cu15O34,-2.05865879875
mp-1226181,Cu15Bi4(Se4I)4,-0.41816518044871903
mp-1229059,Ba10Gd2Y3(Cu3O7)5,-2.173916957307692
mp-1229082,Ba6Ca12Cu15Hg3O37,-2.057572151678081
mp-1216483,ZnCu15H24(ClO3)8,-1.088826755555554
mp-1217657,ZnCu15H24(ClO3)8,-1.090106182222221
mp-1228878,Ba10CaY4(Cu3O7)5,-2.136966623
mp-1229001,Ba8Sr2Sm5(Cu3O7)5,-2.173131123076923
mp-1228989,Ba10PrY4(Cu3O7)5,-2.17394330148718
mp-1229238,Ba10Gd4Y(Cu3O7)5,-2.17027978623077
mp-1229245,Ba10Pr2Y3(Cu3O7)5,-2.162582752435897
mp-1229303,Ba10GdY4(Cu3O7)5,-2.17207375423077
mp-1229307,Ba10Gd3Y2(Cu3O7)5,-2.173138523923077
mp-685158,Cu16I19,-0.331255835857142
mp-21612,Mg6Cu16Si7,-0.158099330344826
mp-1229138,Ba8Y3Lu(CuO2)16,-2.031833313111111
mp-1216020,Zn35Cu17,-0.10122845576923001
mp-684605,Cu17Se10,-0.07142315354166401
mp-758051,Mg7Cu17O24,-1.488675631354166
mp-765523,Ca7Cu17O24,-1.5990185566666661
mp-531656,Ta32Cu17O96,-2.756157602997702
mp-1218738,Sr6Ca4Cu17O29,-1.771835816160714
mp-1228373,Ba3Cu17AgP6,-0.310235762945327
mp-1173243,Sr4La13Cu17O35F16,-2.458975183176471
mp-684898,Cu18S11,-0.158733556641521
mp-1205239,Rb11Cu18(Cl15O)2,-1.299645648893443
mp-1229281,Ba6Ca15Cu18Hg3O43,-2.065335683794118
mp-1225980,Cu19Sn16,0.016392744000001
mp-684970,Cu19Se11,-0.060742821072915
mp-15277,La5Cu19P12,-0.537127037242063
mp-21684,Ce5Cu19P12,-0.52606780876984
mp-685317,Ca5Cu19As10,-0.411068402867643
mp-1220295,Pr4In5Cu19,-0.22972616139881502
mp-1173436,Sr19Cu19O41,-2.024233797658228
mp-1229080,Ce5Cu19P12,-0.5273264826587291
mp-863399,V18Cu20O57,-1.782538707631579
mp-1194744,Cs3Cu20Te13,-0.35579550932311504
mp-1208427,Tm3Cu20Sb11,-0.192943190735293
mp-1209278,Tb3Cu20Sb11,-0.216792163970594
mp-1213597,Dy3Cu20Sb11,-0.23140137014705803
mp-774710,Ba14Y7(Cu10O21)2,-2.245775004216868
mp-1217741,ThU4(Cu4Pd)5,-0.12850656066666502
mp-774711,Ba14LiY7(Cu10O21)2,-2.252379541230159
mp-1229203,Ba10PrY4(CuO2)20,-2.033284027222223
mp-1229217,Ba10PrY4(CuO2)20,-2.028849952422223
mp-1212343,Li22(Cu3Si2)7,-0.265978788187134
mp-1192934,Tb6Cu23,-0.191758803103449
mp-1193217,Lu6Cu23,-0.21628776189654902
mp-1194041,Dy6Cu23,-0.197867905172411
mp-686109,Cu23(Sb4S13)2,-0.283368354747813
mp-1225855,Cu23PdN8,0.20902136236607102
mp-760021,Ca19(Cu12O23)2,-1.938372510786516
mp-683950,Ca10Pr4Cu24O41,-1.859047586540084
mp-1196830,Cu24Ag9Pb26(Cl31O24)2,-0.769102637603549
mp-1196871,KCu24Ag9H48Pb26(Cl31O24)2,-1.239314642716743
mp-684923,Cu25Se26,-0.18084744710375703
mp-684606,Cu27Se20,-0.133801923111701
mp-1232365,Cu27CO,0.223248142413792
mp-685189,Cu29Se19,-0.092854481347655
mp-532348,Cu29(Ag6As7)2,0.041034129636364006
mp-1224683,MgSc8Ga15Cu29,-0.20049899806603802
mp-1225808,Cu31PdN8,0.22184154564285702
mp-530144,Ba6Cu34S27,-0.718488040932835
mp-1217808,V30Cu34O95,-1.7734819382704412
mp-685126,Cu39S20,-0.058103504088980004
mp-707411,Zn3Fe15Cu39(Ge3S32)2,-0.558702693385826
mp-1213530,Cu41Sn11,0.027442269134616
mp-1195752,Sr7Cu44As23,-0.27746189054053805
mp-1196262,Eu7Cu44As23,-0.25716695172297305
mp-1216441,Zr14Cu51,-0.16313380046153803
mp-1217740,Th14Cu51,-0.167180772923075
mp-1224756,Hf14Cu51,-0.155761783538461
mp-1213626,Cu64O,0.002360372846153
mp-1227576,Cu81Sn22,0.026199568834949002
mp-1238808,Au,0.11838149999999802
mp-1008634,Au,0.0021085050000020002
mp-81,Au,0.0
mp-2647062,Au,0.021884700000001003
mp-30420,SrAu,-0.8102438095000021
mp-2793,AuSe,-0.14021907453124502
mp-567525,Te2Au,-0.063471650000001
mp-570325,AuSe,-0.136406840781248
mp-30412,Pb3Au,-0.06182607312499701
mp-1206652,HfAu,0.461947415000004
mp-1215274,ZrAu,-0.532984107499999
mp-1217358,Te3Au,0.012965422499998
mp-1217961,TaAu,-0.034649843666663
mp-1219474,Sb3Au,0.025331640000008003
mp-1227283,BiAu,0.23988130875000002
mp-1227355,Bi3Au,0.17617872187500402
mp-12675,MnAu,-0.302307229224133
mp-640079,Mn3Au,0.155351247255746
mp-1007755,HfAu,-0.6057786524999991
mp-998972,TiAu,-0.47590774083333104
mp-2022276,Te2Au,-0.08722446416667101
mp-1214760,AuI2,-0.20558824833333403
mp-1214775,AuBr2,-0.337731516666666
mp-1194495,Ta2Au,-0.07043042655555601
mp-1120780,AuCl,-0.25400319250000003
mp-27725,AuI,-0.265866406249999
mp-505366,AuBr,-0.40299109374999903
mp-1183214,Ag3Au,-0.061303661249997005
mp-1183504,Bi3Au,0.16731542437500402
mp-1184272,Fe3Au,0.14191514500000102
mp-1184296,Ga3Au,-0.036476191874999
mp-1184646,Ge3Au,0.238464141249998
mp-1185200,Li3Au,-0.39889066249999905
mp-1186494,Pm3Au,-0.26779109312499805
mp-1186699,Pr3Au,-0.191963381249999
mp-12664,Be12Au,0.074974904615384
mp-2348,Zr2Au,-0.468447070000001
mp-30383,Hf2Au,-0.47882607000000604
mp-30409,Mn2Au,-0.013939208793099001
mp-973498,In3Au,-0.07600398000000201
mp-976365,Nd3Au,-0.20743211062499803
mp-976765,Na3Au,-0.17961209249999902
mp-976818,Ni3Au,0.09746691250000301
mp-982510,P3Au,0.619503958258931
mp-1103431,Ga2Au,-0.097132713333337
mp-27213,AuBr3,-0.556991212499999
mp-27647,AuCl3,-0.323221143125
mp-1363,Na2Au,-0.297318376666666
mp-1629,Th2Au,-0.420564369999998
mp-22795,Pb2Au,-0.089213313333336
mp-30571,Tl2Au,-0.045777170000008006
mp-755435,Tl2Au,-0.028241393333341
mp-1214857,AuCl4,-0.21840214599999902
mp-32780,AuCl,-0.264202023750002
mp-570140,AuBr,-0.38517572000000305
mp-1185813,Mg5Au,-0.178331147499999
mp-16886,CdAu,-0.211002030555549
mp-1662,Te2Au,-0.072704987083336
mp-1557,Mg3Au,-0.392171660416666
mp-1216391,VAu,0.15470798500000102
mp-1219709,PtAu,0.012786540000007
mp-1219920,PdAu,-0.07237694500000201
mp-1222403,LiAu,-0.42561290333333
mp-1224962,FeAu,0.25060891
mp-1226221,CrAu,0.42751692625000004
mp-1229092,AgAu,-0.062225997500000005
mp-942,AuF3,-1.101981742499999
mp-17783,Mg3Au,-0.392609770416664
mp-30370,Cd3Au,-0.159890943333332
mp-1183149,BAu,0.8404483029166661
mp-1183164,AuC,1.877627278749997
mp-1183171,AuCl,0.091416983749997
mp-984598,AuS,0.05658852601562701
mp-1008661,AuC,2.247474876249999
mp-1183227,AgAu,-0.046850372500003006
mp-1185573,Mg149Au,-0.004093147366666001
mp-1186779,PtAu,0.028669980000003002
mp-1217014,TiAu,-0.196494080833332
mp-1226718,CdAu,-0.12943553999999502
mp-10681,B2Au,0.668647770555554
mp-1214766,AuC2,1.543402631666666
mp-1228707,AuC,2.113772146249999
mp-1005762,Sm3Au,-0.236851607500001
mp-10678,AuSe,0.112159920468755
mp-1078964,Mg3Au,-0.37611366208333
mp-11251,Mg3Au,-0.176622044999999
mp-1183205,Ag3Au,-0.05014332124999701
mp-1183852,Ce3Au,-0.180394406249997
mp-1184316,Ga3Au,-0.018823888124998002
mp-1184413,Fe3Au,0.15356156875000002
mp-1184506,In3Au,-0.07712791125000201
mp-1186030,Na3Au,-0.177894747499999
mp-1186212,Np3Au,0.418937295937496
mp-1186260,Nd3Au,-0.22443240187499902
mp-1186500,Pm3Au,-0.290799660624998
mp-1186701,Pr3Au,-0.20731389
mp-1186840,Pu3Au,-0.15446540197918002
mp-1187048,Sn3Au,0.07638589343749601
mp-1188000,Zn3Au,-0.149453557499999
mp-1775,SnAu,-0.143542680000003
mp-973626,Hg3Au,0.115798553229168
mp-976838,Ni3Au,0.10469737500000001
mp-1147651,SnAu,0.005142704999997001
mp-30365,BeAu,-0.136192663750001
mp-541656,AuCl2,-0.31720318750000104
mp-1101868,AuN2,0.633648126666666
mp-738,Sb2Au,-0.068974772499998
mp-1008558,AuN,1.540296207499999
mp-1220,Be5Au,-0.08535215583333401
mp-11240,DyAu,-0.838420510833334
mp-11245,HoAu,-0.9581525824999981
mp-11249,LuAu,-0.9867002433333311
mp-11254,NdAu,-0.754530751249994
mp-11255,PrAu,-0.7273524220833291
mp-11256,ScAu,-0.8570578424999981
mp-11257,SmAu,-0.783378910000001
mp-11258,TbAu,-0.832824828333327
mp-11259,TiAu,-0.36749317083333105
mp-11260,Ti3Au,-0.2628507525
mp-11261,YAu,-0.928670779999997
mp-1183064,Ac3Au,-0.337090792708352
mp-1183137,Ag3Au,-0.061713688749996005
mp-1183446,Bi3Au,0.17562989687500102
mp-1184461,Gd3Au,-0.288534820000002
mp-1187103,Sr3Au,-0.127861769444443
mp-1187266,Tb3Au,-0.24369972749999902
mp-1187532,Tl3Au,0.040541974999996004
mp-1206794,LiAu,-0.562660433333331
mp-12674,MnAu,-0.373967652241375
mp-1684,ZnAu,-0.22188130749999802
mp-2442,ErAu,-0.9636423516666711
mp-2667,CsAu,-0.360558844999999
mp-2757,CdAu,-0.199336070000001
mp-2818,YbAu,-0.9939060824999971
mp-30373,RbAu,-0.27381589375000004
mp-437,MgAu,-0.591989967499998
mp-447,TmAu,-0.9786033899999961
mp-570698,V3Au,0.012390177499995
mp-635426,GdAu,-0.8434288549999991
mp-973055,Hg3Au,0.150807638229167
mp-976725,Hf3Au,-0.21616196250000902
mp-979039,Th3Au,-0.13061599499999602
mp-999298,Pd3Au,-0.049388452499997
mp-1080569,Tl3Au,0.035071916666659
mp-11263,Zr3Au,-0.38776459374999905
mp-1786,Ti3Au,-0.386483803749999
mp-2752,Nb3Au,-0.112583049999997
mp-30424,Zn3Au,-0.17685481468750103
mp-569249,Ta3Au,-0.054570624250004
mp-839,V3Au,-0.088406430000002
mp-1214753,AuS2,0.5640863996354091
mp-1008610,AuN,1.5102573925000011
mp-11247,Li3Au,-0.403062934999999
mp-1183492,Bi3Au,0.16580898937500102
mp-1186018,Na3Au,-0.17982310250000003
mp-22154,In2Au,-0.318354423333332
mp-2776,Ga2Au,-0.23312863000000003
mp-978096,Pu3Au,0.537350439270824
mp-983412,Ga3Au,-0.029265909374998
mp-1210247,Na4Au,0.027822462379310003
mp-1210471,Pb4Au,0.222943892
mp-1214182,Bi4Au,0.26018084749999804
mp-29665,Sb3Au,0.05198793499999901
mp-20123,Te2Au,-0.090904143333337
mp-1404,CdAu,-0.203186414999997
mp-998985,TiAu,-0.47585178333333605
mp-1018648,AuN2,0.430680151666668
mp-1462,Sn2Au,-0.09548341583333701
mp-1025399,LaAu,-0.8215519199999991
mp-1025468,CeAu,-0.655926381249999
mp-1078589,EuAu,-0.8053756025000031
mp-1079811,SmAu,-0.8280384287500031
mp-1079915,PrAu,-0.786427940833329
mp-1080709,NdAu,-0.808293752499999
mp-1084808,YbAu,-1.00333050375
mp-1095658,Tb2Au,-0.6198240702777741
mp-1095690,Tm2Au,-0.7643416283333361
mp-1101816,Lu2Au,-0.7774412019444461
mp-1102090,Ga2Au,-0.135034559166669
mp-1102098,Nd2Au,-0.552289104166665
mp-1102362,Ce2Au,-0.345085959166664
mp-1102972,Er2Au,-0.7473506830555571
mp-1103395,La2Au,-0.553784210000005
mp-1103411,Dy2Au,-0.6251573719444391
mp-1103633,Sm2Au,-0.5784103275000001
mp-11250,Mg2Au,-0.481426777500002
mp-1189094,Eu3Au,-0.450594708750005
mp-1209057,Sc2Au,-0.7162463683333341
mp-2714,Pr2Au,-0.528117441111109
mp-30103,AuF5,-0.8650549835416661
mp-30366,Ca3Au,-0.5012645812500011
mp-30379,GaAu,-0.23083902125000202
mp-30385,Ho2Au,-0.7452779566666641
mp-570775,BaAu,-0.722707377499999
mp-570901,Yb2Au,-0.7852546008333351
mp-979911,Y2Au,-0.7202639633333321
mp-1002136,LaAu,-0.8244094650000041
mp-1007666,HoAu,-0.9956048700000011
mp-1007918,DyAu,-0.8778207408333321
mp-1017507,TmAu,-1.006067452499998
mp-1018087,CeAu,-0.6405005124999991
mp-1018175,ThAu,-0.61527127
mp-1066254,YAu,-0.9712743599999951
mp-11243,ErAu,-0.9961256566666701
mp-12723,CaAu,-0.8549962350000011
mp-999141,TbAu,-0.8731497208333301
mp-999193,SmAu,-0.8350797550000001
mp-999306,PrAu,-0.7879062870833321
mp-999338,NdAu,-0.8108822362499951
mp-1220645,Nb3Au,-0.102266934999999
mp-1226953,Cd3Au,-0.027217998333334003
mp-1393,Sn4Au,0.019752794000004
mp-571547,Te2Au,-0.08118413875000301
mp-1228677,AuCl,-0.00806939125
mp-1228770,Au(OF3)2,-0.707441946666666
mp-34982,Ag3AuS2,-0.07901846010416501
mp-12743,CrTe4Au,-0.42683443611111205
mp-675633,Ag4AuS2,0.06848232526785701
mp-997014,PbAuO2,-0.952841969999998
mp-1067925,SrSi3Au,-0.36923481700000005
mp-1068048,BaSn3Au,-0.502566114999997
mp-1215511,YbGa3Au,-0.5535416629999981
mp-1218236,SrIn3Au,-0.41411597200000005
mp-1219033,SmGa3Au,-0.5795790015000001
mp-1219979,PrGa3Au,-0.607911420833332
mp-1220156,NdGa3Au,-0.5991544979999951
mp-1226631,CeGa3Au,-0.557484264499999
mp-1227345,BaTl3Au,-0.32651352800000405
mp-1247095,Sr3AuN3,-0.334160478821435
mp-997046,AuClO2,-0.157334674999999
mp-997082,BiAuO2,-1.1179759625
mp-1182317,AuBr3N2,1.0978969408333321
mp-1212136,K3AuF12,-1.635460675734375
mp-1215621,YbGeAu,-0.8070033149999981
mp-1215979,YGaAu,-0.790862310833334
mp-1216663,TmGaAu,-0.882031434999997
mp-1216817,USiAu,-0.25014954499999803
mp-1216915,UGeAu,-0.35918160062500204
mp-1217530,TbGaAu,-0.78973157138889
mp-1222319,LuGaAu,-0.861363818888889
mp-1222442,Li5AuO4,-1.8052916706666662
mp-1223942,HoGaAu,-0.7828172591666631
mp-1225205,EuGaAu,-0.679489522500001
mp-1225586,ErGaAu,-0.8840810427777791
mp-27300,RbAuBr3,-1.185198881499999
mp-2901862,AuBr3N2,0.9180738999999981
mp-568666,RbAuI3,-0.9100505774999991
mp-641367,Cr3AuO8,-1.571547349999999
mp-996955,HAuO2,-0.7349685753125
mp-997009,BaAuO2,-1.783481409999999
mp-997043,PbAuO2,-0.9572818112499981
mp-997089,NaAuO2,-1.107666330344827
mp-997090,PdAuO2,-0.584163049999998
mp-997094,SrAuO2,-1.863680323749999
mp-997183,MnAuO2,-1.375097408232759
mp-10421,RbAuC2,0.180490668124999
mp-10422,NaAuC2,0.243353904999999
mp-10423,KAuC2,0.15296281397396
mp-1065405,CsAuC2,0.17846705258620602
mp-1147676,BaAuO2,-1.7100057874999992
mp-1206276,Pr2Sb3Au,2.171705191111112
mp-1206301,Sm2As3Au,2.2959174995833322
mp-1206316,Nd2Sb3Au,2.1858070625000012
mp-1206328,Pr2As3Au,2.250274490694444
mp-1206950,Tb2As3Au,2.355027070694444
mp-1206980,La2Sb3Au,2.090960726666666
mp-1207287,Nd2As3Au,2.26888279375
mp-1209649,Sm2Sb3Au,2.219171336666666
mp-1215448,Zn2PdAu,-0.38947878749999904
mp-1215460,Zn2AgAu,-0.131609738749999
mp-1221746,Mn4Hg3Au,0.176010962844827
mp-1227562,Ca4Cd3Au,-0.429319546249998
mp-1213732,CrSn4Au,0.018862023125000002
mp-29138,KAuSe2,-0.8170831492343761
mp-1078315,PrBi2Au,-0.5798715079166671
mp-1078370,CeBi2Au,-0.5613821775000011
mp-1078401,LaBi2Au,-0.648044906250001
mp-1079312,NdSb2Au,-0.8020229518749991
mp-1079550,PrSb2Au,-0.8045159741666651
mp-1079698,CeSb2Au,-0.800721782499999
mp-1079703,SmSb2Au,-0.7844288874999991
mp-1080419,SmBi2Au,-0.5547655300000011
mp-1226657,CeAs2Au,-0.782787381249998
mp-510574,USb2Au,-0.452090536249997
mp-644143,LaSb2Au,-0.8720730412500021
mp-675224,LaSb2Au,-0.608946725
mp-979001,SmAs2Au,-0.750415775000001
mp-28606,K3AuSe13,-0.38899801248345506
mp-3291,AgTe4Au,-0.095523587500001
mp-554442,LiAuF4,-2.019117527222222
mp-618309,Bi2AuO5,-1.248398051875002
mp-1214261,BiPb3Au,-0.041301746500005
mp-28365,Na3AuO2,-1.316017036939655
mp-7471,Li3AuO3,-1.6711503846428561
mp-768915,Na3AuO3,-1.3641995052339881
mp-1025531,LaAs2Au,-0.7969652824999991
mp-10547,RbAuO,-1.067955709166669
mp-1232326,La2AuO4,-2.8594359000000003
mp-23484,CsAuCl3,-1.194202064500001
mp-28453,CsAuI3,-0.94590951493103
mp-569548,CsAuBr3,-1.218823183931034
mp-9986,CsAuO,-1.061347121551727
mp-1189694,AuNCl3,0.7520656830000001
mp-1195965,AuCl4O3,0.12022859187499901
mp-1214770,AuBr4N,0.446550651666666
mp-1214882,AuI3N,0.9506459985000001
mp-23355,PAuCl4,-0.661167174662698
mp-27741,TeAuI,-0.405502547222223
mp-28192,AuSCl5,-0.298684163973214
mp-28372,AuSeCl7,-0.356808604340276
mp-29139,NaAuSe2,-0.6177059851562521
mp-29519,KAuI4,-0.8019475003749991
mp-29520,LiAuI4,-0.6960096280555541
mp-29694,KAuBr4,-1.097771732458332
mp-29972,Nd2P3Au,-1.020948188571426
mp-30996,RbAuBr4,-1.119264391249999
mp-31045,KAuI3,-0.8868143234500001
mp-556587,AuSCl7,-0.28595768864583304
mp-560745,AuN5O14,-0.6861960044999991
mp-568986,KAuCl4,-1.318274768708334
mp-570193,NaAuCl4,-1.224311163146551
mp-572441,Cs3AuO2,-1.210118107466476
mp-684015,Bi9AuBr9,-0.692469906447369
mp-996983,AgAuO2,-0.46954475916666605
mp-1106106,Tl4AuSe3,-0.20236725802343603
mp-1203126,Nd6Fe13Au,-0.07323368649999701
mp-16060,AgAuF4,-1.254503722499999
mp-29890,Th2AuF11,-3.5900266949999953
mp-3419,RbAuF4,-2.069932459583331
mp-4585,Pr6Fe13Au,-0.055593717749999
mp-5309,KAuF4,-2.069855809541666
mp-561123,U2AuF11,-3.133972604285662
mp-7388,NaAuF4,-1.883067553333333
mp-1211793,Li4AuS4,-0.787456992037036
mp-1214785,Ba2AuO4,-1.504700687857142
mp-1246914,Na3AuN2,0.12335467062500001
mp-1247381,Li3AuN2,-0.09666335958333101
mp-31496,Li2Sn2Au,-0.44432156333333506
mp-1079483,LiAuF6,-1.7639808779166661
mp-1195837,Ga40Mo8Au,-0.15498343244898002
mp-1219480,Sb8Pd3Au,-0.28248004000000004
mp-27265,AuClO,-0.598648675555555
mp-1095283,PAuO4,-1.758875572440474
mp-1095378,AsAuO4,-1.16497064791667
mp-1095499,CsAuCl4,-1.077038575
mp-1214771,AuNCl4,0.6606430549999961
mp-12263,LiAuF4,-2.015588653888889
mp-1245653,AuC2N3,0.27975794541666404
mp-28368,TlAuCl4,-0.99616455138889
mp-567218,KAuN12,0.46170029158928505
mp-567913,CsAuSe3,-0.580733772437503
mp-568861,CsAuN12,0.44850688705356606
mp-569442,RbAuCl4,-1.3371062620833332
mp-570340,AgAuCl4,-0.45443635000000104
mp-571181,RbAuN12,0.474736585535713
mp-630336,AuCl5O18,-0.112470342708334
mp-755240,AsAuO3,-1.0752385365000001
mp-780960,Li5AuO4,1.021828352833333
mp-996961,LiAuO2,-1.2030508220833331
mp-997018,AuClO2,-0.16159608999999903
mp-997040,AuBrO2,-0.117032451249999
mp-1245660,AuC2N3,0.233826025555553
mp-1219001,Sn2Pd2Au,-0.36819779300001804
mp-1219928,PdPtAu,-0.01424152311111
mp-1207095,SiPAu,-0.24235215432539703
mp-1229031,AgPd2Au,-0.051216158750001003
mp-1206638,NiSn2Au,-0.22768509749999702
mp-1218970,Sn2PdAu,-0.33103981250000203
mp-1219015,Sn2Pd3Au,-0.396172375000015
mp-1220072,NdSnAu,-0.584702774166665
mp-1078240,Si6Ni3Au,-0.33147821000000005
mp-1226970,Ce2Mg5Au,-0.09374408437499901
mp-12442,KAuF6,-1.819060352156249
mp-34460,Ag3AuS2,-0.09499693510416701
mp-568925,Ni2Sn4Au,-0.21323079857142901
mp-7113,CrAuS2,-0.760279661249997
mp-996952,LaAuO2,-2.563041556250001
mp-996981,TlAuO2,-0.7706499683333341
mp-996994,FeAuO2,-1.155320730625
mp-996996,CrAuO2,-1.6227390800000001
mp-997025,PbAuO2,-0.9499778774999991
mp-997051,PdAuO2,-0.572657589999999
mp-997161,CoAuO2,-0.953616617499999
mp-997163,MnAuO2,-1.353948866982759
mp-997167,NiAuO2,-0.826287978749999
mp-15567,Na3AuS2,-1.061003663189655
mp-15571,K3AuSe2,-1.129119164406249
mp-29196,AuCN,0.250602922499998
mp-10098,YGeAu,-0.9297520466666681
mp-1018657,CaBiAu,-0.759286298333336
mp-1018695,EuBiAu,-0.7140231450000081
mp-1018826,NdGeAu,-0.830777172499998
mp-1019094,PrGeAu,-0.8218377322222231
mp-1019101,SmGeAu,-0.836434029999997
mp-1019278,TbGeAu,-0.8342304022222221
mp-1071260,LaSnAu,-0.867995121666668
mp-1072888,TmGeAu,-0.799296619999995
mp-1077471,YbBiAu,-0.6040881800000001
mp-11081,CeSnAu,-0.739031595000002
mp-12563,ErGeAu,-0.5751429649999991
mp-13302,LuSnAu,-0.8680237538888911
mp-13303,ErSnAu,-0.7961439466666651
mp-16741,TmSnAu,-0.7791274233333351
mp-20434,GdSnAu,-0.8825591083333341
mp-22149,DyGeAu,-0.8252924688888881
mp-31412,PrSnAu,-0.824945663888885
mp-31413,TbSnAu,-0.8258439038888901
mp-31414,DySnAu,-0.8139786638888921
mp-4219,CeGeAu,-0.7452239566666651
mp-4304,SmSnAu,-0.823230969999997
mp-5519,HoGeAu,-0.816435929999996