material_id,formula,formation_energy_per_atom
mp-2240995,MgCu3(TeO5)2,-1.390498626770833
mp-556074,K2Cu3(SeO3)4,-1.329588991613095
mp-556755,K2Cu3Ge5O14,-1.829301913312499
mp-557876,V2Cu3(Bi2O7)2,-1.7060072191304352
mp-557946,Cu3Se2(ClO3)2,-1.041221858822115
mp-558156,V6Fe4(CuO8)3,-1.927963268378378
mp-558944,Tl2Cu3(SeO3)6,-1.150262691749282
mp-752567,Li3Co2Cu3O10,-1.276165690555555
mp-752862,Li5Co2Cu3O10,-1.506706398833333
mp-755312,Li5Nb2Cu3O10,-2.153272704333333
mp-755409,Li5Mn2Cu3O10,-1.740015555376437
mp-755495,Li5Cu3(TeO5)2,-1.6134647764999999
mp-755623,Li5Cr2Cu3O10,-1.579612999333333
mp-756533,Li4Cu3WO8,-1.701415623958333
mp-756553,Li5Cu3(SbO5)2,-1.783768492333333
mp-759938,Li2Cu3(P2O7)2,-2.201181475879917
mp-771233,Li5Fe2Cu3O10,-1.576931387833334
mp-773166,Li5Cu3(NiO5)2,-1.387457697333333
mp-780243,Li5Ti2Cu3O10,-2.212030808166667
mp-849416,Li4Fe2Cu3O10,-1.453578767543859
mp-849495,Li4Mn2Cu3O10,-1.622025959431337
mp-849652,Li3Ti2Cu3O10,-2.045897611481481
mp-862560,Cu3Mo2(HO5)2,-1.434671531911764
mp-1228134,Ba4Sm(CuO3)3,-2.354427233529411
mp-1042608,MgTi4(CuO4)3,-2.582087696416667
mp-1042619,MgCu3(SnO3)4,-1.7081269237499992
mp-1042621,Ti4Zn(CuO4)3,-2.430172866666666
mp-1042654,ZnCu3(SnO3)4,-1.565534222999999
mp-1042667,MgCu3(SbO3)4,-1.529880702749999
mp-1042687,ZnCu3(SbO3)4,-1.3884253295
mp-1042703,CaCu3(SbO3)4,-1.6625862200000001
mp-1042724,CaCu3(BiO3)4,-1.465652833
mp-1042728,MgCu3(BiO3)4,-1.31694427525
mp-1042729,ZnCu3(BiO3)4,-1.18493122
mp-1043062,MgFe4(CuO4)3,-1.39895055325
mp-1043063,Mn4Zn(CuO4)3,-1.459055547086207
mp-1043065,ZnCu3(MoO3)4,-1.5492062990000002
mp-1043069,ZnCr4(CuO4)3,-1.6309150124999992
mp-1043073,CaCo4(CuO4)3,-1.32432780525
mp-1043110,MgCo4(CuO4)3,-1.21279138375
mp-1043121,MgMn4(CuO4)3,-1.608809191336207
mp-1043122,MgCu3(MoO3)4,-1.700195746249999
mp-1043124,CaFe4(CuO4)3,-1.5190555345
mp-1043129,ZnFe4(CuO4)3,-1.250058050999999
mp-1043132,ZnCu3(NiO3)4,-0.878460211
mp-1043133,CaCu3(NiO3)4,-1.142198382499999
mp-1043134,ZnCo4(CuO4)3,-1.0564679405
mp-1043180,MgV4(CuO4)3,-1.98828314425
mp-1043183,MgCu3(NiO3)4,-1.02894179825
mp-1043224,CaCr4(CuO4)3,-1.89484731
mp-1043274,CaCu3(MoO3)4,-1.8330227565000001
mp-1045593,YTi4(CuO4)3,-2.788873325166666
mp-1045596,YCu3(AgO3)4,-0.9182627558333321
mp-1045602,YCu3(SbO3)4,-1.695958161
mp-1045630,YCu3(BiO3)4,-1.503880039
mp-1045656,YCu3(SnO3)4,-1.889178546499999
mp-1045767,YCr4(CuO4)3,-2.0308343435
mp-1045770,YFe4(CuO4)3,-1.6635873589999992
mp-1045774,YCo4(CuO4)3,-1.459902555
mp-1045838,YCu3(MoO3)4,-1.8837956219999992
mp-1045844,YCu3(NiO3)4,-1.303135913499999
mp-1105109,PrCu3(RuO3)4,-1.548487052583333
mp-1105138,SrFe4(CuO4)3,-1.5113539930000002
mp-1105220,CaCu3(IrO3)4,-1.3095097324999991
mp-1105352,CeFe4(CuO4)3,-1.685703730499998
mp-1105546,LaFe4(CuO4)3,-1.68143263775
mp-1105642,TbFe4(CuO4)3,-1.6487880873333332
mp-1105690,PrFe4(CuO4)3,-1.644028250083332
mp-1105842,MnV4(CuO4)3,-1.885855621396551
mp-1105980,LuMn4(CuO4)3,-1.834520231419541
mp-1106004,HoFe4(CuO4)3,-1.643843274249999
mp-1106008,SmFe4(CuO4)3,-1.649820056249999
mp-1106150,CeMn4(CuO4)3,-1.884282891086206
mp-1106325,CaCu3(PtO3)4,-1.146631897
mp-1181730,GdMn4(CuO4)3,-1.8379451045862072
mp-1188097,GdFe4(CuO4)3,-1.3816251465
mp-1188611,ErFe4(CuO4)3,-1.642056497500001
mp-1188625,LuFe4(CuO4)3,-1.632009475833332
mp-1189224,DyFe4(CuO4)3,-1.646393583083332
mp-1189790,NdFe4(CuO4)3,-1.6472652043749991
mp-1189973,TmFe4(CuO4)3,-1.6396610404999992
mp-1190091,EuFe4(CuO4)3,-1.5570055997499992
mp-1208349,TbMn4(CuO4)3,-1.84841248641954
mp-1208604,SrTi4(CuO4)3,-2.691188633166666
mp-1209905,NdMn4(CuO4)3,-1.842725734461206
mp-1210001,NaTi4(CuO4)3,-2.517509082235631
mp-1210050,NaV4(CuO4)3,-1.915295836068966
mp-1210616,Mn4Cu3BiO12,-1.5428297505862072
mp-1211392,LaMn4(CuO4)3,-1.851974178836207
mp-1213040,ErMn4(CuO4)3,-1.842960201586206
mp-1302062,MgCr4(CuO4)3,-1.777060351749999
mp-1377478,YV4(CuO4)3,-2.158641957000001
mp-17119,SrCu3(SnO3)4,-1.8438558354999999
mp-17599,CaCu3(GeO3)4,-1.826874171
mp-18190,CaCu3(SnO3)4,-1.839566818499999
mp-2230139,MgCu3(GeO3)4,-1.70931382725
mp-22305,NaCu3(RuO3)4,-1.327652719568966
mp-22592,CaTi4(CuO4)3,-2.702762577666666
mp-22666,NdCu3(RuO3)4,-1.5512482963749998
mp-504836,YMn4(CuO4)3,-1.839007585086207
mp-504862,Ti4Cd(CuO4)3,-2.455855152166667
mp-510056,CaV4(CuO4)3,-2.0777873745
mp-510570,CaMn4(CuO4)3,-1.726377317086206
mp-554375,DyMn4(CuO4)3,-1.84482484266954
mp-557341,TmMn4(CuO4)3,-1.841364770086206
mp-559926,PrMn4(CuO4)3,-1.8384541796695402
mp-561515,SmMn4(CuO4)3,-1.8468631963362072
mp-6036,CaCu3(RuO3)4,-1.4716149799999991
mp-636476,SrCu3(RuO3)4,-1.4695830330000001
mp-641065,HoMn4(CuO4)3,-1.843333252836206
mp-641487,EuMn4(CuO4)3,-1.7607220618362072
mp-645435,Cu3Sn4PbO12,-1.6325775295
mp-648519,ThMn4(CuO4)3,-1.949011755086206
mp-680690,LaCu3(RuO3)4,-1.5693222917500012
mp-653631,BaNa4Cu3F12,-2.6341957474008613
mp-1216617,Tl2GaCu3Se4,-0.39070085875000005
mp-1216651,Tl2FeCu3Te4,-0.29100073333333404
mp-1222077,Mn5Cu3(Te2O5)8,-1.550147666348777
mp-760025,Li2MnCu3O8,-1.350782723006978
mp-1178641,ZnCu3NiSe4,-0.40075988437499904
mp-1178642,ZnCoCu3Se4,-0.379609004374999
mp-1178643,ZnCrCu3Se4,-0.44914191548611004
mp-1178644,ZnGaCu3Se4,-0.41287546409722203
mp-1178645,ZnInCu3Se4,-0.36831730067129603
mp-1178697,YCu3PbSe4,-0.584932177083329
mp-1178702,YZnCu3Se4,-0.7638669732638881
mp-1178705,YMgCu3Se4,-0.8952980082638881
mp-1178710,YCu3HgSe4,-0.537520616388879
mp-1178729,YCdCu3Se4,-0.733350332152776
mp-1178753,VZnCu3Se4,-0.504013661041666
mp-1178804,VCu3HgSe4,-0.34543589458333
mp-1178806,VCdCu3Se4,-0.480463387708333
mp-1178824,VCu3PbSe4,-0.31869466615740105
mp-1178984,TlZnCu3Se4,-0.24800118363426002
mp-1179003,SrYCu3Se4,-0.9901448598611111
mp-1179014,SrVCu3Se4,-0.6892064728240691
mp-1179021,TlCdCu3Se4,-0.20046161696759301
mp-1179028,TlCu3PbSe4,-0.050939331990760006
mp-1179060,SrTlCu3Se4,-0.349868555324071
mp-1179075,SrScCu3Se4,-1.033170127083334
mp-1179118,SrGaCu3Se4,-0.605986214861109
mp-1179119,SrInCu3Se4,-0.616540314004629
mp-1179135,ScZnCu3Se4,-0.8070692393749991
mp-1179138,SrCu3NiSe4,-0.5023391618981441
mp-1179142,SrCoCu3Se4,-0.518125420416663
mp-1179168,SrCrCu3Se4,-0.686520716597222
mp-1179510,ScCdCu3Se4,-0.7801601315972211
mp-1179516,ScCu3HgSe4,-0.5677991844907431
mp-1179525,ScCu3PbSe4,-0.6274525309722231
mp-1179676,RbZrCu3Se4,-0.8066454218749991
mp-1179694,RbVCu3Se4,-0.6435518274305551
mp-1179697,RbTiCu3Se4,-0.819035083356479
mp-1179714,RbMnCu3Se4,-0.5272647594228921
mp-1179715,RbHfCu3Se4,-0.8151389574305541
mp-1179749,RbCu3GeSe4,-0.42768493354166603
mp-1179750,RbCoCu3Se4,-0.41787043854166706
mp-1179752,RbCu3SnSe4,-0.388664431319444
mp-1179753,RbCu3SiSe4,-0.528510689652778
mp-1179860,NaCu3SnSe4,-0.4021145639727
mp-1179864,NaMnCu3Se4,-0.5926786942983711
mp-1179880,NaCu3GeSe4,-0.403314378417145
mp-1179888,NaCu3PbSe4,-0.168218159768523
mp-1179889,NaCoCu3Se4,-0.36803630853394903
mp-1179901,NaCu3NiSe4,-0.35819228353395205
mp-1180089,NaZrCu3Se4,-0.8889416889727011
mp-1180113,NaVCu3Se4,-0.700609850083811
mp-1180119,NaTiCu3Se4,-0.8910411104541831
mp-1180276,MgVCu3Se4,-0.615954247152777
mp-1180283,MgGaCu3Se4,-0.516434553541666
mp-1180284,MgCu3NiSe4,-0.496496023819444
mp-1180289,MgCrCu3Se4,-0.563302297152777
mp-1180319,MgScCu3Se4,-0.9430680477083321
mp-1180322,MgCoCu3Se4,-0.48002798381944306
mp-1180325,MgTlCu3Se4,-0.32750841307870404
mp-1180674,KZrCu3Se4,-0.8474681140694441
mp-1180688,KTiCu3Se4,-0.8573680999953701
mp-1180689,KVCu3Se4,-0.678193346291667
mp-1180796,KCu3SnSe4,-0.406619911291665
mp-1180804,KCoCu3Se4,-0.444975947402777
mp-1180817,KCu3NiSe4,-0.430737784069443
mp-1180832,KMnCu3Se4,-0.561436839395113
mp-1180842,KCu3GeSe4,-0.43654328351388805
mp-1180844,KCu3SiSe4,-0.536191989624999
mp-1180884,KHfCu3Se4,-0.855402977402776
mp-1180900,KCu3PbSe4,-0.24781990406944301
mp-1180995,InCu3HgSe4,-0.13156113171296102
mp-1181068,InCu3PbSe4,-0.19785891930555902
mp-1181331,GaCu3HgSe4,-0.18618393171296202
mp-1181468,Cu3NiHgSe4,-0.16447887819443702
mp-1181558,CsZrCu3Se4,-0.753559454336686
mp-1181577,CsTiCu3Se4,-0.7674667591515001
mp-1181579,CsMnCu3Se4,-0.48573498676262805
mp-1181585,CsHfCu3Se4,-0.7620884521144641
mp-1181592,CsVCu3Se4,-0.5555849351388651
mp-1181597,CsCu3GeSe4,-0.41463169155890806
mp-1181613,Cu3NiPbSe4,-0.197139811898144
mp-1181713,CrCdCu3Se4,-0.426930553263889
mp-1181716,CrCu3HgSe4,-0.35846515243055505
mp-1181720,CrCu3PbSe4,-0.38541920215277703
mp-1181785,CoCu3HgSe4,-0.14309507282407202
mp-1181852,CaTlCu3Se4,-0.35068629532407003
mp-1181874,CdGaCu3Se4,-0.391080810763888
mp-1181879,CdCu3NiSe4,-0.37138562881944304
mp-1181881,CdCoCu3Se4,-0.347259751041666
mp-1181925,CaScCu3Se4,-1.020910454305555
mp-1181927,CaYCu3Se4,-0.977876567083332
mp-1181943,CaVCu3Se4,-0.689457122824074
mp-1181964,CaGaCu3Se4,-0.594137893749998
mp-1181967,CaCu3NiSe4,-0.6079391121527771
mp-1181975,CaCoCu3Se4,-0.52333569597222
mp-1181990,CdInCu3Se4,-0.33231454289351803
mp-1182006,CaCrCu3Se4,-0.6918354121527771
mp-1182175,BaInCu3Se4,-0.6106670128935181
mp-1182182,BaScCu3Se4,-1.02975280048611
mp-1182227,BaGaCu3Se4,-0.701721057430555
mp-1182239,BaCu3NiSe4,-0.597937356597221
mp-1182240,BaTlCu3Se4,-0.44072450807870406
mp-1182242,BaYCu3Se4,-0.9642272554861111
mp-1182275,BaCrCu3Se4,-0.6699013354861111
mp-1182299,BaCoCu3Se4,-0.602898337708332
mp-2224165,MgVCu3S4,-0.7562501916666661
mp-2225846,MgCu3AsS4,-0.465563149166665
mp-2226170,MgNbCu3S4,-0.6477943216666661
mp-1147541,Cu3As4(OF)6,-1.693288499473684
mp-1232328,Cu3Sb4(OF)6,-1.812046923157895
mp-554590,Cu3B7BrO13,-2.276922489548611
mp-651682,Cu3B7IO13,-2.248403250381944
mp-1023127,Ba4Cu3PbO9,-1.99420982382353
mp-1096779,Ba4Ce(CuO3)3,-2.444313205294118
mp-1147655,Ba4Cu3SnO9,-2.123746172941177
mp-1147699,Ba4Ti(CuO3)3,-2.39949921637255
mp-1214478,Ba4Sm(CuO3)3,-2.3553576002941172
mp-1214501,Ba4Ho(CuO3)3,-2.395158187647059
mp-1214933,Ba4Gd(CuO3)3,-2.370190314411765
mp-643409,Ba4Y(CuO3)3,-2.379512943235294
mp-653337,Ba4Yb(CuO3)3,-2.277796831985293
mp-1147523,Ba4Cu3ReO12,-2.058776172625
mp-1147524,Ba4Cu3IO12,-1.7970897352500002
mp-1147525,Ba4Cu3SeO12,-1.799391756117187
mp-1147529,Ba4Cu3BrO6,-2.021303888928572
mp-1147534,La4Cu3SeO12,-2.402573929117187
mp-1147539,La4Cu3MoO12,-2.458766031
mp-1147645,Ba4Cu3SeO6,-2.019611005881696
mp-1147665,K4MgCu3F12,-2.636752578699999
mp-1147678,Sr4Cu3ClO6,-2.073900851428571
mp-1147683,La4Cu3TeO12,-2.407845207333333
mp-1232318,Ba4Cu3MoO12,-1.9910682555
mp-647452,CaTi4(CuO4)3,-2.317524291666667
mp-1261874,Y2Cu3(SiO4)3,-2.474899936250001
mp-1021507,Ba2Y(CuO2)3,-2.126923245
mp-1213325,Cu3B7ClO13,-2.300329190902778
mp-1225791,Cu3P(SeS)2,-0.26372816948661104
mp-2228630,MgMn4(CuO4)2,-1.693353601781609
mp-2228656,MgMn4(CuO4)2,-1.727009230448276
mp-2228668,MgGa4(CuO4)2,-1.7050161916666662
mp-2228677,MgGa4(CuO4)2,-1.686810651666666
mp-2232156,MgCo4(CuO4)2,-1.177567495666666
mp-2232342,MgFe4(CuO4)2,-1.460025673666665
mp-2232413,Pr4Mg(CuO4)2,-2.6069766427777763
mp-2232631,MgFe4(CuO4)2,-1.390013625666665
mp-2232690,MgFe4(CuO4)2,-1.3776365276666651
mp-2240155,K2Mg(CuO2)2,-1.4186207477222221
mp-2240266,MgCu2(PbO2)2,-1.203357740555554
mp-551283,Na2Cu2TeO6,-1.4894735208568441
mp-554393,VCu2BiO6,-1.598496588333334
mp-555358,Ba2UCu2S5,-1.62023344475
mp-555425,K2Th(CuS2)2,-1.4406986949444431
mp-555609,Sr9Zn4(CuO7)2,-2.492094681034483
mp-556536,Na2Zr(CuS2)2,-1.2435093036398461
mp-558650,UCu2(PO5)2,-2.485950907285713
mp-570700,Hf3Tl2(CuSe4)2,-1.203561037027778
mp-607477,CsSc3(CuTe3)2,-1.177219663721264
mp-755106,Li3Fe2(CuO4)2,-1.419831394666666
mp-755201,Li3Fe(CuO3)2,-1.5660399941666672
mp-756110,Li2Fe(CuO3)2,-1.340744974242425
mp-756531,LiNd6(CuO6)2,-3.053568413730159
mp-756973,Li3Mn(CuO3)2,-1.64030431566092
mp-775959,LiLa7(CuO7)2,-3.129668005868056
mp-1025467,Cu2SnHgS4,-0.5388364934374991
mp-1025500,ZnCu2SnS4,-0.7045220518749991
mp-1025510,FeCu2SiSe4,-0.48466351242187505
mp-1025532,MnCu2SnTe4,-0.35078778994971205
mp-1025540,MnCu2SiTe4,-0.222765962539508
mp-1078292,CdCu2SnS4,-0.6550641731249991
mp-1078498,ZnCu2SiTe4,-0.38904060583333205
mp-1078909,CdCu2GeTe4,-0.23293948791666302
mp-1079012,Cu2SnHgTe4,-0.185415718687494
mp-1079468,ZnCu2SnTe4,-0.434689381458332
mp-1080131,Cu2SiHgTe4,-0.321316687395833
mp-10824,ZnCu2GeSe4,-0.5947719280468741
mp-1087471,FeCu2GeSe4,-0.45886360554687405
mp-1087540,CdCu2SiTe4,-0.381776322083332
mp-1091413,CdCu2SnTe4,-0.27066530774999703
mp-10952,Cu2HgGeS4,-0.5334485421875
mp-10967,CdCu2GeSe4,-0.570855355546874
mp-1147571,KCu2GeS4,-0.695317246531249
mp-1147586,SrCu2GeS4,-0.9977921768749991
mp-11769,CoCu2SiS4,-0.470670829909455
mp-11770,CoCu2SnS4,-0.559492078124999
mp-11771,CoCu2SnSe4,-0.466372290546875
mp-1206870,MnCu2GeTe4,-0.31318375869971204
mp-1212038,InFe(CuSe2)2,-0.530486792005207
mp-1232397,ZnCu2SiSe4,-0.6322071886718751
mp-12854,ZnCu2GeTe4,-0.39786391520833203
mp-12855,Cu2HgGeSe4,-0.478189799609376
mp-16564,ZnCu2SnSe4,-0.625376661796875
mp-16565,CdCu2SnSe4,-0.599961899296874
mp-16566,Cu2SnHgSe4,-0.507165615859376
mp-19722,MnCu2SnS4,-0.6555518003663781
mp-22053,FeCu2GeS4,-0.5802735543749991
mp-2222834,MgCu2GeS4,-0.844362185
mp-2227170,MgCu2WS4,-0.605645693124998
mp-22400,MnCu2SnSe4,-0.5598454115382541
mp-22612,FeCu2SnSe4,-0.48558709054687305
mp-22648,FeCu2SnS4,-0.583377755624999
mp-6408,ZnCu2GeS4,-0.6985897668749991
mp-6498,CoCu2GeS4,-0.5522363181249991
mp-6602,SrCu2(BO3)2,-2.2868555280303022
mp-758070,LiCu2PO4,-1.832488992247023
mp-557454,BaV2(CuO4)2,-2.121815618653846
mp-1042162,BaYCu2O5,-2.237075460555556
mp-1147560,KY(CuO2)2,-2.009003093406249
mp-1147752,KLa(CuO2)2,-1.987107097781249
mp-1206155,NdCu2SeO2,-0.667728079973957
mp-1206200,DyCu2SeO2,-0.7387567223350681
mp-1206303,Cu2BiSO2,-0.261227099583333
mp-1206538,BaSr(CuO2)2,-1.989722439999999
mp-1206781,HoCu2SeO2,-0.7401615345572901
mp-1207265,LaCu2SeO2,-0.8502563112239591
mp-1207277,YCu2SeO2,-0.7332074220572911
mp-1223920,K3MgCu2F9,-2.743810196116666
mp-1397195,Ba2Cu2HgO6,-1.51681122840909
mp-1096847,BaCu2(AgO2)2,-1.117537564814814
mp-1147526,BaCu2(HgO2)2,-1.235696421666667
mp-1201135,Ti9Cu2(B4Ru9)2,-0.5542027202702681
mp-1147633,LiCu2BiO4,-1.387596295416666
mp-572929,U2Cu2As3O,-1.051773737812499
mp-1239162,TaCr3(CuS4)2,-0.845514206595237
mp-25871,Li3Cu2P5O16,-2.386644062815933
mp-569603,BaCa4(CuN2)2,-0.7560053975000001
mp-10489,Cs2Ti(CuSe2)2,-1.168822045779853
mp-1211474,K2Ti(CuS2)2,-1.273278239203703
mp-7129,Rb2Ti(CuS2)2,-1.276396080370371
mp-1213978,CaLa2Cu2O7,-2.5119807387499993
mp-1218190,SrNd2(CuO3)2,-2.588841362272727
mp-1218240,SrLa2(CuO3)2,-2.650924237272727
mp-1218363,SrCa(CuO2)2,-2.0828855225
mp-23095,Ca3Cu2(ClO2)2,-2.313304971818181
mp-545706,Ca3Cu2(BrO2)2,-2.21662937090909
mp-1040901,Ti2Zn(CuO4)2,-2.087631376089744
mp-1040904,MgTi2(CuO4)2,-2.312563503974359
mp-1040927,MgTa2(CuO4)2,-2.45806495651282
mp-1040928,MgCu2(SbO4)2,-1.613947283846153
mp-1040945,Ta2Zn(CuO4)2,-2.227221631320512
mp-1040964,ZnCu2(BiO4)2,-1.149475383846154
mp-1040977,ZnCu2(SbO4)2,-1.388313226730768
mp-1040980,MgCu2(BiO4)2,-1.3616142500000001
mp-1040989,CaTi2(CuO4)2,-2.392578074166666
mp-1040991,CaCu2(BiO4)2,-1.399125508461539
mp-1041016,ZnCu2(TeO4)2,-1.235739037371793
mp-1041041,CaCu2(SbO4)2,-1.6952755607692311
mp-1041056,MgCu2(TeO4)2,-1.4859480002564092
mp-1041087,CaTa2(CuO4)2,-2.537921995166665
mp-1041089,CaCu2(TeO4)2,-1.5342357504487172
mp-1041178,MgCu2(SnO4)2,-1.592502498653845
mp-1041184,Be3Cu2(SiO4)3,-2.421315751750001
mp-1041279,CaCu2(SnO4)2,-1.654953553461537
mp-1041311,ZnCu2(SnO4)2,-1.375599337884615
mp-1041392,V2Zn(CuO4)2,-1.800356723653846
mp-1041401,MgCu2(WO4)2,-1.8444932040384612
mp-1041405,Mn2Zn(CuO4)2,-1.223978300643236
mp-1041410,MgMn2(CuO4)2,-1.44615300525862
mp-1041415,ZnCu2(MoO4)2,-1.570572925192307
mp-1041416,MgFe2(CuO4)2,-1.277269997692307
mp-1041418,MgCo2(CuO4)2,-1.16458650326923
mp-1041420,ZnFe2(CuO4)2,-1.065241350384615
mp-1041431,ZnCo2(CuO4)2,-0.9477753736538461
mp-1041432,ZnCu2(WO4)2,-1.6126012723076921
mp-1041441,ZnCu2(NiO4)2,-0.716444539230769
mp-1041444,CaV2(CuO4)2,-2.114510688653846
mp-1041446,MgCu2(NiO4)2,-0.9280559388461531
mp-1041447,ZnCr2(CuO4)2,-1.4507405
mp-1041448,CaCu2(MoO4)2,-1.906417266153846
mp-1041453,CaCu2(WO4)2,-1.9497189025000001
mp-1041467,CaFe2(CuO4)2,-1.342881780961538
mp-1047810,CaCu2(NiO4)2,-0.9832437686538451
mp-1176775,LiCu2C2O7,-1.497353368402777
mp-1178348,Li2Cu2C2O7,-1.659775678205127
mp-1181662,Cu2H3ClO3,-1.068107490694444
mp-1181910,Cu2C4NCl5,0.44603703035590403
mp-1182542,Cu2C4NCl5,0.15094150452256902
mp-1195291,Rb2Cu2Sb2S5,-0.797405277499999
mp-1196376,ZnCu2PO8,-1.227186738511904
mp-1197083,MnCu2P2O9,-1.914534978194054
mp-1198006,TlCu2(AsO4)2,-1.298078701987179
mp-1199182,KCu2SbSe3,-0.641877588290178
mp-1199787,Cu2C3NCl5,0.23633268811553101
mp-1200069,Cu2MoSeO7,-1.356836467713068
mp-1200251,Cu2PHO5,-1.656103565376984
mp-1207451,ZnCu2(BO3)2,-1.90665171280303
mp-1207907,ZnCu2PO9,-0.8703490053571421
mp-1211123,MnCu2(SO4)2,-1.176007945225464
mp-1211424,MgCu2(SO4)2,-1.348969833846153
mp-1212576,K2Cu2(MoO4)3,-1.820189981157894
mp-1213365,FeCu2(SO4)2,-1.255421459230767
mp-1214264,CdCu2(SO4)2,-0.9325812561538461
mp-1225359,FeCu2BO5,-1.62897110712963
mp-1239141,TaCr3(CuS4)2,-0.9047498348095221
mp-1239255,NbCr3(CuS4)2,-0.8881816385714281
mp-1348661,MgCu2(MoO4)2,-1.800053061730769
mp-1350165,CaCo2(CuO4)2,-1.235552343076923
mp-1351744,CaCr2(CuO4)2,-1.76328286076923
mp-17262,BaCu2(AsO4)2,-1.790317039230768
mp-1935909,MgCr2(CuO4)2,-1.672737195576923
mp-504588,Cu2H2CO5,-1.2588766395
mp-560100,CdCu2(BO3)2,-1.8614182557575751
mp-560291,MgV2(CuO4)2,-2.028509108076923
mp-620325,CoCu2(BO3)2,-1.813588461893939
mp-699707,VCu2BiO6,-1.599227990416667
mp-729390,Cu2C3Br5N,0.14753699488636302
mp-734045,Cu2H2Se2O7,-1.127199978052884
mp-759054,Li2Cu2Si2O7,-2.244345291089743
mp-768553,Li3Cu2(SO4)3,-1.848495716875
mp-768757,LiCu2(SO4)3,-1.622298755879629
mp-774351,Li3Cr3(CuO6)2,-1.700678392124999
mp-777767,Li3Cu2(SO4)3,-1.855845476624999
mp-558472,SrCu2(BO3)2,-2.2910450016666672
mp-1044526,Ba2YCu2F11,-3.316270353645834
mp-2226421,La2Mg(CuO3)2,-2.362037259545454
mp-767456,Li3Ta5Cu2O15,-2.840781232866667
mp-778458,Li3Cu2(SO4)3,-1.846770737875
mp-1044696,ZnCu2(PO4)2,-1.9848272407142842
mp-1178622,ZrCu2(O3F2)4,-0.9575254517391301
mp-1180744,Mg2Cu2CO11,-0.985048606875
mp-1198265,ZrCu2(O3F2)4,-0.46661651630434803
mp-1199461,Mg2Cu2CO11,-0.6923127449999991
mp-1203834,Cu2H10N4O17,-1.021658625681818
mp-1203872,Na2Cu2(B4O7)3,-2.604301021290773
mp-1210638,Na3Cu2(MoO4)3,-1.8408381034568961
mp-1210695,Mg3Cu2(AsO4)3,-2.045043184375
mp-1210907,Mg3Cu2(PO4)3,-2.551128611446429
mp-1250217,Zn3Cu2(Si2O7)2,-2.274659114347825
mp-1254120,Mg3Cu2(Si2O7)2,-2.629049142608695
mp-1264728,Ca3Cu2(Si2O7)2,-2.810327077826086
mp-504476,Cu2PO4F,-1.858791852142857
mp-561024,CaEu2(CuO3)2,-2.366486377272728
mp-652224,Rb2Cu2(MoO4)3,-1.807643631184211
mp-757514,Li4Cu2Si3O10,-2.465885658859649
mp-767480,Li3Cu2SbO6,-1.749991024166667
mp-768832,Li2Cu2(SO4)3,-1.781498495219298
mp-16988,SrCu2SnS4,-1.024496204791666
mp-17252,BaCu2GeSe4,-0.9520959122135421
mp-17947,BaCu2GeS4,-1.058076236458333
mp-17954,BaCu2SnS4,-1.052913258541665
mp-1245497,SrCu2PbS4,-0.9148844220833321
mp-17322,SrCu2SnS4,-1.024511623541666
mp-18685,SrCu2GeS4,-1.043014072708333
mp-555818,Cu2SiPbS4,-0.716490147083331
mp-2224223,MgFe2(CuO2)2,-1.266943341666666
mp-2227380,MgCu2WS4,-0.612451789374998
mp-1225270,FeCu2SnSe4,-0.392537348046873
mp-2228617,MgV4(CuS4)2,-1.017534706333332
mp-1210717,MgCu2TeO12,-0.548341568229166
mp-1018784,LiCe(CuP)2,-0.7783612054365061
mp-1018791,LiY(CuP)2,-0.7918834571031741
mp-1024988,LiYb(CuP)2,-0.88499610626984
mp-1103457,Eu3Zn2(CuP2)2,-0.807327113051947
mp-1221735,MnCu2SbO4,-1.25144204099138
mp-569617,Ca3Zn2(CuP2)2,-0.7891818062337651
mp-8220,LiTb(CuP)2,-0.912795412103174
mp-973019,LiSm(CuP)2,-0.7995634929365071
mp-1215651,Zr3Fe(CuS4)2,-1.318447079999999
mp-1216360,VFe(CuO2)2,-1.5252759012500001
mp-1216924,TiCu2NiO4,-1.6615216229166672
mp-1216982,TiCr3(CuSe4)2,-0.8634328422916651
mp-1217139,Ti3Mn(CuS4)2,-1.284549266280787
mp-1217153,Ti3Cu2NiS8,-1.209494034999998
mp-1217164,Ti3Co(CuS4)2,-1.219978469999999
mp-1217187,Ti3Fe(CuS4)2,-1.222017552857142
mp-1221799,Mn3Cu2NiO8,-1.55448934455665
mp-1221928,MnCu2Sn3S8,-0.681555680923645