material_id,formula,formation_energy_per_atom
mp-720328,KMg8Al17Si19O72,-3.274515530061965
mp-721330,Rb14Na3Al17Si31O96,-3.110719303907689
mp-534773,Na2Al17Si11B7(H3O31)2,-3.070061787470717
mp-1198942,Mg3(TaAl9)2,-0.11657761476811601
mp-1201475,Mg3(Al9Mo)2,-0.14514522304347702
mp-1201511,Mg3(Al9V)2,-0.133509603695655
mp-1205144,Mg3(Al9W)2,-0.09715376434782501
mp-3778,Mg3(Al9Cr)2,-0.09550298956521701
mp-684027,Mg3(MnAl9)2,-0.099934075472263
mp-684031,Mg3(TiAl9)2,-0.156651298768115
mp-1229050,Al18Co5Ni3,-0.46633009298076905
mp-581536,U4Al18Ni5,-0.313887611111109
mp-720216,Ca3Y9Al18CrSiO48,-3.5388778815
mp-1215090,Al19Co6,-0.361538210399999
mp-1208546,Ta24Al19,-0.31516260657209805
mp-30526,Mn4Al19,-0.18574687703148401
mp-757340,Al19CrO30,-3.369452651599999
mp-30272,U2Al19Co6,-0.38713690388889005
mp-582996,Pr2Al19Co6,-0.45997783030864203
mp-1196284,U3Al19Ni5,-0.354860719629627
mp-642428,Y3Al19Ni5,-0.500113050185184
mp-604254,U2Al20Fe,-0.093879222391302
mp-1214905,Al20(CoB2)3,0.111161514779312
mp-1194657,Th(Al10V)2,-0.227836684999997
mp-1195666,La(Al10V)2,-0.21227389608695602
mp-1195763,Sm(Al10V)2,-0.19833712608697102
mp-1196837,Ca(Al10Cr)2,-0.10303668364906901
mp-1197724,Ce(Al10V)2,-0.243318580869564
mp-1199103,U(Al10Cr)2,-0.131455151304346
mp-1200087,La(TiAl10)2,-0.25298167297101304
mp-1200116,Pr(Al10Cr)2,-0.135908346004145
mp-1200867,La(Al10Cr)2,-0.15602358195652002
mp-1203374,Nd(Al10Cr)2,0.074673902872669
mp-1203416,Sm(Al10Cr)2,-0.144845340652173
mp-1204284,U(Al10Cr)2,0.10511701434782701
mp-1204502,Pr(TiAl10)2,-0.24179781434782502
mp-1204650,Y(Al10Cr)2,-0.13908250913043402
mp-1204963,Pr(Al10V)2,-0.218633473985505
mp-16966,Ce(Al10Co)2,-0.16958345217391202
mp-17188,U(Al10V)2,-0.21980792695652102
mp-3910,Ce(Al10Cr)2,-0.170987423478261
mp-567387,Ce(TiAl10)2,-0.26542400927536103
mp-567527,Eu(Al10V)2,-0.214834057391302
mp-643271,Gd(Al10Cr)2,0.081148632981365
mp-680636,Er(Al10Cr)2,-0.137102160869564
mp-1216239,Y9Er3Al20O48,-3.684012552499999
mp-1216268,Y9Lu3Al20O48,-3.686752151125
mp-1227989,BaSrAl20(CuO17)2,-3.260788074482758
mp-1215027,Al21Pt5,-0.27458006867788504
mp-1498,Al21Pd8,-0.5663915224137921
mp-1982,Al21Pt8,-0.8275750072413781
mp-568153,Al22Mo5,-0.28811383611111
mp-1256766,PrAl22O34,-3.390416666345029
mp-530984,Al22PbO34,-3.349244203684211
mp-531590,SrAl22O34,-3.421004158947369
mp-674298,Al22CdO34,-3.326903878070176
mp-530358,PrAl22O34,-3.389757124239765
mp-530682,GdAl22O34,-3.3924286759649123
mp-532198,LaAl22O34,-3.397020331578947
mp-765486,PrAl22O34,-3.381625728801169
mp-1223083,La3Nd3Al22,-0.41431234062499805
mp-530826,Mg7Al22O40,-3.348124007608695
mp-1217883,Ta13Al23,-0.30056153871852404
mp-30335,Al23V4,-0.182922749629629
mp-530274,Al23B50,-0.069090475136986
mp-4847,Y4Al23Ni6,-0.512973576666667
mp-581770,Sm4Al23Ni6,-0.5179037521212121
mp-582245,Ce4Al23Ni6,-0.501992273030303
mp-1247830,Al23O17F35,-3.4250182276
mp-1221714,MnAl24Cr,-0.08413894761273101
mp-1207999,Tm4(Al8Pt3)3,-0.9971951210810811
mp-1208006,Tm4(Al8Pd3)3,-0.7497528991891871
mp-1208449,Tb4(Al8Pt3)3,-1.013384432432432
mp-1208456,Tb4(Al8Pd3)3,-0.7650290627027021
mp-1210587,Lu4(Al8Pt3)3,-0.9836709199099071
mp-1212310,Ho4(Al8Pd3)3,-0.757923104864865
mp-1212326,Ho4(Al8Pt3)3,-1.005797907837834
mp-1212875,Dy4(Al8Pt3)3,-1.010103367837836
mp-1212879,Dy4(Al8Pd3)3,-0.761957365405403
mp-1212881,Er4(Al8Pd3)3,-0.7530480306306301
mp-31475,Er4(Al8Pt3)3,-1.00076607144144
mp-570806,Mg30Al24Ag19,-0.032273761735158
mp-531864,Al24Zn3O40,-3.194382054179105
mp-669550,Ce3Mn(Al3Cu)8,-0.17723599410919402
mp-697313,Al24Tl10Cd7(SiO4)24,-2.956410770766046
mp-707302,Rb10Al24Cd7(SiO4)24,-3.057677131335403
mp-695172,CsMg12Al25Si29O108,-3.305619005655173
mp-1215157,Al27V,1.03727787
mp-1229168,Al27(FeNi2)2,-0.288511096212118
mp-1211131,Mn8(Al9Zn)3,-0.137957275222322
mp-1216209,Y3(Al7Cr2)4,-0.20944666410256302
mp-1219899,Pr3(Al7Cu2)4,-0.24341227743590002
mp-17659,Mg23Al30,-0.010167054999999
mp-1211191,Mn6Al31Cu2,-0.16429056416887602
mp-30179,Mn6Al31Ni2,-0.218562340066313
mp-863387,K6Al32O51,-3.249958889983145
mp-1178196,LaAl33O51,-3.419918198588236
mp-530754,Mg5Al34O56,-3.27577871468421
mp-31506,Mg32Al36Ag13,-0.061067787551439004
mp-1228719,Al37(Fe6Cu)2,-0.325392666470587
mp-1245113,Al38O21,-1.853587141271187
mp-1245250,Al38O21,-1.846094399745763
mp-1208408,U6Al39Mo8,-0.221069346603771
mp-1208616,Tb6Al39Cr8,-0.284285820566037
mp-1208623,Tb6Al39V8,-0.314845596792451
mp-1208936,Sm6Al39V8,-0.305472492358489
mp-1209105,Sm6Al39Cr8,-0.273375141698113
mp-31403,Al39Fe7Cu24,-0.032104059999999005
mp-567701,Ba21Al40,-0.24333117606557403
mp-1229052,Al41V4,-0.09491059866666701
mp-1226597,Er6Al41Cr6,-0.276343464245282
mp-1227005,Ce2Al41Mo3,-0.180877548706009
mp-685394,Eu2Al42O65,-3.288463833073394
mp-1196069,Nd6Al43W4,-0.30663193867925104
mp-1197029,Sm6Al43W4,-0.278005951792452
mp-1197169,Lu6Al43W4,-0.25598878349056503
mp-1197176,Sm6Al43Mo4,-0.319731011226414
mp-1197793,Tm6Al43Cr4,-0.26044411009434004
mp-1198347,Tb6Al43Cr4,-0.27102337462264003
mp-1198488,Er6Al43Mo4,-0.311893282641508
mp-1198914,Dy6Al43Cr4,-0.284528618679244
mp-1199159,Nd6Al43Mo4,-0.313522902641508
mp-1199361,Ho6Al43Cr4,-0.266186434339621
mp-1199868,Y6Al43W4,-0.273693356415093
mp-1200455,Dy6Al43W4,-0.275317395283017
mp-1200512,Er6Al43W4,-0.270025930377357
mp-1201197,Tb6Al43Mo4,-0.320292896698112
mp-1201295,Th6Al43Mo4,-0.295797598018867
mp-1201364,U6Al43Cr4,-0.15358596971697902
mp-1201665,Er6Al43Cr4,-0.264686852830186
mp-1202005,Lu6Al43Mo4,-0.29833048254716904
mp-1202016,Tm6Al43W4,-0.26467368754717
mp-1202283,U6Al43Mo4,-0.198552458301885
mp-1203150,Tm6Al43Mo4,-0.306787365660378
mp-1203616,Y6Al43Cr4,-0.266836688018867
mp-1203633,Sm6Al43Cr4,-0.26769183471698005
mp-1204202,Ho6Al43W4,-0.27192955198113
mp-1205140,Nd6Al43Cr4,-0.27012812982704104
mp-1205254,U6Al43W4,-0.15958199792452601
mp-1207857,Y6Ta4Al43,-0.334880393855344
mp-1207858,Y6Ti4Al43,-0.33918514213836404
mp-1207860,Y6Nb4Al43,-0.361934139999999
mp-1208160,Tm6Al43V4,-0.30314308443396304
mp-1208183,Tm6Ta4Al43,-0.29547114508176103
mp-1208184,Tm6Nb4Al43,-0.321905858773585
mp-1208191,Tm6Ti4Al43,-0.329173370157232
mp-1208218,U6Nb4Al43,-0.204750794339621
mp-1208268,Tm6Mn4Al43,-0.26261117191932304
mp-1208288,U6Ta4Al43,-0.18043214083647602
mp-1208482,U6Al43V4,-0.24756272955508402
mp-1208499,Tb6Nb4Al43,-0.36814382141509405
mp-1208500,Tb6Ta4Al43,-0.34126644196855505
mp-1208501,Tb6Ti4Al43,-0.342817325911949
mp-1208556,Tb6Al43V4,-0.31502285424528204
mp-1208824,Sm6Nb4Al43,-0.33554676433962205
mp-1208892,Sm6Al43V4,-0.313024828207547
mp-1209147,Sm6Ti4Al43,-0.364228345314464
mp-1209186,Sm6Ta4Al43,-0.33798227319496804
mp-1210290,Nd6Ta4Al43,-0.329823564893082
mp-1210322,Nd6Ti4Al43,-0.355906396069181
mp-1210336,Nd6Nb4Al43,-0.35674339198113003
mp-1210363,Nd6Al43V4,-0.306143053113207
mp-1210969,Lu6Al43V4,-0.32341681216981005
mp-1210971,Lu6Nb4Al43,-0.31329109792452803
mp-1211259,Lu6Ta4Al43,-0.31350161715723
mp-1211304,Lu6Ti4Al43,-0.32076420308176
mp-1212353,Ho6Al43Mo4,-0.313838959339621
mp-1212360,Ho6Ti4Al43,-0.36130126776729504
mp-1212377,Ho6Ta4Al43,-0.33440391857232404
mp-1212405,Ho6Nb4Al43,-0.361336117452829
mp-1212412,Ho6Al43V4,-0.309372864339621
mp-1212458,Ho6Mn4Al43,-0.268973141447624
mp-1213242,Dy6Al43V4,-0.312038951792451
mp-1213257,Dy6Nb4Al43,-0.365169979716981
mp-1213274,Dy6Ta4Al43,-0.338279569893081
mp-1213416,Er6Ti4Al43,-0.33444079157232603
mp-1213424,Er6Ta4Al43,-0.32973535668553505
mp-1213427,Er6Al43V4,-0.308055281792452
mp-1213435,Er6Nb4Al43,-0.35663039066037705
mp-1213481,Er6Mn4Al43,-0.267136057013662
mp-1214183,Ca6Al43W4,-0.21386580726415003
mp-1232410,Dy6Al43Mo4,-0.317154658018866
mp-567159,Dy6Ti4Al43,-0.339040828553458
mp-680956,Gd6Ta4Al43,-0.284307390836473
mp-31019,Al45Cr7,-0.09345293211538401
mp-567919,Al45V7,-0.16927828615384702
mp-1211475,La4Al51W7,-0.239656479946237
mp-30174,Ca4Al51Cr7,-0.146165152580644
mp-1229054,Al53Fe17Si12,-0.30029397890243803
mp-1219273,Sm8Al53Si17Ru12,-0.48701686522222104
mp-706448,Mn14Al56Ge3,-0.22577826761691103
mp-667379,Ba7Al64O103,-3.447888620201149
mp-568106,Mg41Al67,0.040276533657407
mp-1229249,Al79(Fe13Si9)2,-0.30386820479674603
mp-1215162,Al119Cr16Fe13,-0.097232206216216
mp-1056079,Cu,1.982934489999999
mp-1010136,Cu,0.03556281
mp-1120774,Cu,0.18032071500000002
mp-989695,Cu,0.007716539999998001
mp-989782,Cu,0.012339934999999
mp-30,Cu,0.0
mp-998890,Cu,0.033066179999998
mp-1059259,Cu,0.15576821999999801
mp-1067210,ZrCu,-0.1250487375
mp-30471,CaCu,-0.10677027750000101
mp-850099,CuS2,0.351664054618055
mp-32880,CuBr,-0.5165704024999991
mp-1077372,Zr2Cu,-0.089884348333331
mp-1080203,CuN,0.20554500500000103
mp-1246684,CuAs,0.19522826850000202
mp-23219,CuBr2,-0.663808629999998
mp-2360071,CuBr2,-0.672241919999999
mp-30999,CuCl2,-0.670025861666665
mp-654801,CuO2,-0.400261233333333
mp-2745918,CuI4,0.041182183999998005
mp-32829,CuCl4,-0.31046379699999804
mp-33218,CuI4,-0.16940907000000002
mp-11359,Ga2Cu,-0.080186346666666
mp-1147530,CuBr2,-0.46649785666666604
mp-1147667,CuI2,-0.160968143333333
mp-1147672,CuF2,-1.706543093333332
mp-1147758,CuCl2,-0.472898831666665
mp-1147768,CuO,-0.6652429325
mp-1213016,CuI2,-0.15565562000000002
mp-2034504,ZnCu,-0.087976599999998
mp-522,CuAu,-0.048137494999999
mp-2078,TiCu,-0.138510230833333
mp-22863,CuI,-0.329992295833334
mp-22917,CuBr,-0.515792749999999
mp-580226,CuSe,-0.131382814531249
mp-1692,CuO,-0.9427949424999991
mp-510751,CuO,-0.763260695937499
mp-1147532,CuBr2,-0.45981051666666606
mp-1147670,CuF2,-1.710258549999999
mp-1147756,CuCl2,-0.46160558499999804
mp-1183752,Co3Cu,0.11858711624999901
mp-1183872,Ce3Cu,0.124652727499999
mp-1184018,CuAu3,-0.012307605000000001
mp-1184054,CuNi3,0.0430200825
mp-1184119,CuPd3,-0.050925034999998
mp-1184121,CuRu3,0.274872782500001
mp-1184132,CuSn3,0.24575988249999903
mp-1184183,CuGe3,0.324850239166666
mp-1184185,CuPb3,0.260976732500004
mp-1184311,Fe3Cu,0.13227488750000102
mp-1186036,Na3Cu,0.22388534508620603
mp-1186272,Nd3Cu,0.169491401875003
mp-1186511,Pm3Cu,0.156636944374994
mp-1187227,Ta3Cu,0.164942817499998
mp-1187546,Tl3Cu,0.289969380000002
mp-1187753,V3Cu,0.138322794999998
mp-193,Zr2Cu,-0.13412213
mp-1978391,CuTe,0.026828514999998002
mp-25229,CuO,-0.353386787499998
mp-30581,Hf2Cu,-0.159939316666665
mp-742,Ti2Cu,-0.11303320444444301
mp-975642,Pr3Cu,0.15455379770833103
mp-975882,Li3Cu,0.056218754999999
mp-1229,CuF2,-1.8150299499999991
mp-927,CuP2,-0.156310461150794
mp-1034,Th2Cu,-0.09556743166666501
mp-1052023,Mg2Cu,-0.07827812166666501
mp-1072518,In2Cu,0.11441033792857001
mp-1245797,CuAs2,0.23650515333333202
mp-27954,CuN3,0.293795457499999
mp-704645,CuO,-0.9425302874999991
mp-1096941,CuS,0.015433938593751001
mp-570136,CuI,-0.34307305999999904
mp-1225654,CuCl,-0.498003276249999
mp-1227357,Be3Cu,-0.104867697916667
mp-32750,CuI,-0.335948152083331
mp-1207193,CuTe2,0.003043896666665
mp-1225705,CuH,0.098205464999999
mp-570081,CuI,-0.34341796833333205
mp-1221725,Mn4Cu,0.135450011655171
mp-1225677,CuAu,0.024034950000000003
mp-1225687,CuNi,0.041428610000000005
mp-1225701,CuPd,-0.077466425
mp-1225704,CuRh,0.06490085000000001
mp-1225742,CuAu4,0.012961134000000001
mp-1238872,CuCl2,-0.5833798249999991
mp-23306,CuI,-0.08705149250000001
mp-25378,CuO2,-0.529777563333333
mp-644311,CuPt,-0.18247179999999802
mp-1184046,CuCl,-0.483592201249999
mp-24093,CuH,0.11516825312499901
mp-569346,CuI,-0.33453556833333103
mp-1016285,Mg7Cu,0.033928098437498
mp-1023610,Mg15Cu,0.035471845937499004
mp-1184069,CuNi,0.059683559999999004
mp-976292,NaCu,0.38996692172413805
mp-1185803,Mg5Cu,0.028712746249999
mp-579718,Th2Cu,0.49003468666667005
mp-1018053,InCu,0.012688274999998
mp-1018730,In2Cu,0.16210695626190302
mp-1025402,SrCu,-0.059502690000000004
mp-1025440,CuGe3,0.307625651666667
mp-10598,CuSn,0.009223705
mp-1184004,CuAu3,-0.008191704999997001
mp-1184147,CuGe3,0.33007597791666504
mp-1184173,CuSn3,0.23760033625000002
mp-12070,CuAs,0.053188076249998
mp-23227,CuBr,-0.47606955999999906
mp-30428,BaCu,-0.07352185500000001
mp-488,CuSe,-0.18448107953125
mp-504,CuS,-0.27765523557291705
mp-558139,CuS,0.008297158593752001
mp-568998,CuSe,0.032557020468748005
mp-569792,CuBi,0.14974264749999802
mp-582060,CuSe,0.041482525468749004
mp-972042,Zn3Cu,-0.08087976249999901
mp-974023,In3Cu,0.160142402196424
mp-984351,CuAg3,0.08570780750000001
mp-606644,CuP10,-0.063789065887445
mp-1068,CuS2,-0.176051346041667
mp-1103235,CuTe2,-0.0033016250000010004
mp-2280,CuSe2,-0.127358577708333
mp-23212,CuBr,-0.45611715750000004
mp-23287,CuCl,-0.46296097499999905
mp-10634,CuF,-1.0199156775
mp-13117,CuN,0.7959785775000011
mp-22895,CuI,-0.33633597749999905
mp-22913,CuBr,-0.517612222499999
mp-22914,CuCl,-0.48419320125000104
mp-760381,CuS,-0.267841336406249
mp-1006330,Ce3Cu,0.17109729749999703
mp-1008923,CuN,1.2204936525
mp-1018029,CuPd,-0.12335180499999801
mp-1120722,CuO,-0.6074068758333331
mp-11364,TiCu,-0.055840630833332
mp-11365,Ti3Cu,0.024269343333333002
mp-1169,ScCu,-0.2565679075
mp-1184128,CuPb3,0.254686595000002
mp-1184480,In3Cu,0.174031169696426
mp-1184878,K3Cu,0.338926752749999
mp-1187104,Sr3Cu,0.26870914979166605
mp-1187519,Tl3Cu,0.28639430249999903
mp-1187968,Yb3Cu,0.126674301249995
mp-12586,SmCu,-0.184469244999998
mp-1837,TbCu,-0.25356538499999803
mp-1955,ErCu,-0.284538626666666
mp-1971,HoCu,-0.2765887125
mp-2103,CuAu3,-0.017634247500001
mp-2210,ZrCu,-0.10770546
mp-2323,BeCu,-0.1002443075
mp-2334,DyCu,-0.26587246749999904
mp-2672345,MgCu,-0.07483111708333401
mp-580287,Zr3Cu,0.032930704999999005
mp-614455,GdCu,-0.14120216499999902
mp-639675,EuCu,-0.064432517500002
mp-712,YCu,-0.22700687999999902
mp-984518,Ga3Cu,0.062145338125001004
mp-984711,Cr3Cu,0.2938468025
mp-985,TmCu,-0.300832150000001
mp-987,ZnCu,-0.090755029999999
mp-1008922,CuN,0.8419680825000011
mp-1023128,CuS,-0.152879446406249
mp-1096937,CuI,-0.104970957499999
mp-1183404,Be3Cu,-0.042210671249999006
mp-1184260,Fe3Cu,0.180963685
mp-1186160,Np3Cu,0.315725108437504
mp-1186214,Nb3Cu,0.171096255000001
mp-1187776,U3Cu,0.17906566750000502
mp-1245811,CuAs2,0.15145597999999902
mp-12608,CuPt7,-0.105695779999997
mp-14549,CuO,-0.771667562499999
mp-570354,CuBr,-0.3371445825
mp-571386,CuCl,-0.324469236249999
mp-979283,V3Cu,0.158531359999999
mp-1192264,Ti2Cu,-0.020433258611108
mp-1210855,Mg4Cu,0.35229243449999903
mp-2031,Be2Cu,-0.1403742
mp-504100,CuO2,-0.519412016666666
mp-583800,Zr2Cu,-0.06902328708333301
mp-1016224,Mg3Cu,0.053734334375000005
mp-1425089,CuN,1.3292717725
mp-2766484,CuI4,-0.046507439999999005
mp-978279,Mg3Cu,0.010343071249999001
mp-705439,CuO2,0.622878013333333
mp-684604,CuS2,-0.08546479538194501
mp-972916,MgCu,-0.055227145000000005
mp-2000,CuSe2,-0.13386065937500002
mp-21859,CuAs2,0.08453640666666701
mp-849086,CuS2,-0.180291191875001
mp-1181516,CuTe,0.72635044
mp-1238498,CuTe,0.028214004999998002
mp-20826,CuTe,-0.0842046275
mp-623012,CuTe,0.017019144999999
mp-1147712,CuS2,-0.14545980121527702
mp-1181765,CuB5,0.384631681111113
mp-1201287,CuB5,0.415697696111113
mp-1078920,LaCu,-0.168409907499999
mp-1079091,PrCu,-0.15713975958333
mp-1080443,YCu,-0.24590260999999902
mp-1087547,EuCu,-0.136137378750003
mp-1102243,Eu2Cu,-0.08959786916666901
mp-1198545,CuN8,1.5654694219444432
mp-12614,Ca2Cu,-0.080960578333333
mp-13392,NdCu,-0.18365714999999802
mp-1937,YbCu,-0.31568036875000105
mp-510752,CuO,-0.7900102062499991
mp-585949,CaCu,-0.106909582000001
mp-608366,CuN6,0.648634082142858
mp-636198,CeCu,0.016925611250002002
mp-980769,SmCu,-0.215817401249999
mp-1007922,CuI,-0.28532706583333
mp-1181499,CuO2,-0.49834901499999906
mp-2018976,ZrCu,-0.138376112500001
mp-2933735,CuO2,-0.417576203333333
mp-555599,CuS,-0.277785418072916
mp-571486,CuSe,-0.18522606703124903
mp-601195,CuO2,-0.418688506666666
mp-1213141,CuCl3,-0.43499313187499805
mp-1213433,CuPt3,2.363563227500002
mp-1213653,CuC6,1.332177852142854
mp-1215462,ZnCu,-0.052447234999999
mp-1215483,Zn3Cu,0.0010511375000000001
mp-1224945,FeCu,0.17183034999999902
mp-1225131,Fe3Cu,0.07040123250000001
mp-1225656,CuPd,-0.035590074999998
mp-1225694,CuNi3,0.09215838000000001
mp-1225695,CuNi,0.09309727499999901
mp-1064456,CuO,-0.9417144174999991
mp-600604,CuO2,-0.41530405666666603
mp-614565,CuO2,-0.40864464666666606
mp-673245,CuI,-0.33466205874999905
mp-2481,Mg2Cu,-0.087480521666666
mp-2479851,Mg3Cu,0.0022999993750000003
mp-865014,Mg2Cu,-0.082851244166666
mp-582681,CuAu,-0.039033480499999
mp-1080022,ZrCu,-0.127434691249999
mp-504768,CuN3,0.297025965625
mp-1046283,MgCuO2,-1.7728474831249992
mp-1048350,ZnCuO2,-1.180529732499999
mp-1147782,BaCuO6,-0.69089653390625
mp-1182738,Ba8CuSi16,-0.13395863160000002
mp-1191643,Ba8CuSi16,-0.1316023456
mp-1192045,Ba8CuSi16,-0.1530640628
mp-1224175,In3CuSe5,-0.627808700590277
mp-1225005,Fe2CuS3,-0.503543897083331
mp-1246864,Zn4CuN3,0.1226757378125
mp-1407285,ZnCuO2,-1.171677519999999
mp-562987,VCuO3,-1.783999567000001
mp-675745,Cu(Mo3S4)2,-0.7055114344999991
mp-677041,ZrCuF3,-2.4363949665
mp-753845,LiCuO2,-1.413122691458333
mp-756573,Cu(TeO3)4,-1.242450160392157
mp-758210,V6CuO15,-2.198711609772728
mp-758727,CuCO3,-1.309738503999999
mp-761262,LiCuF3,-2.335109094333331
mp-773059,V8CuO20,-2.213697987816091
mp-997023,CuBrO2,-0.42861368124999905
mp-1215564,ZnCuAu2,-0.13147107999999902
mp-1217204,Ti2CuS4,-1.293220908095238
mp-1217600,Ti17CuP12,-1.119882432829364
mp-1238801,Cr2CuS4,-0.8115970621428551
mp-28888,Cu(PtS2)2,-0.429427245892859
mp-755455,CuTeO4,-1.208201339444444
mp-757448,Co11CuO16,-1.2585811
mp-945184,YCuTe2,-1.099414819583333
mp-945779,DyCuTe2,-1.054262947499999
mp-1195070,Zr4CuSb7,-0.6455815245833321
mp-1193545,Cu(SbO2)2,-1.479015190357142
mp-1206925,CeGa3Cu,-0.08794926083335401
mp-1215181,ZrTiCu,-0.108437207777776
mp-1216850,TiCuNi,-0.30937436777777805
mp-560165,Cu(BiO2)2,-1.3516536721428571
mp-1283513,Cr2CuO4,-1.932982729285715
mp-1079427,Na2CuO2,-1.304079958551723
mp-1147671,CuSCl,-0.36078016019097103
mp-1409697,MgCuO2,-1.906464767499999
mp-30151,CuAuSe4,-0.393256703229165
mp-31510,NbCuTe2,-0.5334687008333321
mp-556582,Cu(IO3)2,-0.829651572777775
mp-568224,Sm3CuSe6,-1.7022769531874982
mp-997042,TlCuO2,-0.9478048508333351
mp-997054,CuBiO2,-1.2602380275000011
mp-1181782,CuReO4,-1.769135923125
mp-1212167,In5CuSe8,-0.650566009464284
mp-1212666,Ga5CuSe8,-0.662766006607142
mp-1212671,Ga5CuTe8,-0.38140181499999903
mp-505244,FeCuSe2,-0.36968365492187505
mp-1212660,GaCuBr4,-1.031876895416664
mp-29362,GaCuCl4,-1.025192511666667
mp-1103016,Ti3CuO8,-2.7189777024999993
mp-1223971,InCuSe2,-0.55242136203125
mp-1224091,InCuTe2,-0.36314005000000105
mp-1224949,FeCuS2,-0.359381146249999
mp-1224961,FeCuTe2,-0.22495995333333302
mp-1225133,Fe3CuAs2,0.056652774166667
mp-1225340,Eu2CuTe4,-1.245295642380956
mp-1225674,CuAsSe2,-0.056748287656255
mp-16421,Zr2CuSb3,-0.561474075
mp-19928,Hf2CuSb3,-0.44938926833333104
mp-505804,Ti2CuSb3,-0.33196598210318
mp-640073,FeCuS2,-0.512044461249999
mp-540812,Sr2CuF6,-3.38532757666666
mp-1103118,RbCuO,-1.188271501666666
mp-1103519,KCuO,-1.216762708249999
mp-1104259,V2CuS4,-1.046797645714285
mp-1147720,BaCuS2,-1.253536136249999
mp-1215535,YbGa3Cu,-0.47663874700000103
mp-1215945,YGa3Cu,-0.4575381565
mp-1219014,SmGa3Cu,-0.5666935580000001
mp-1220168,NdGa3Cu,-0.5747703575
mp-1222853,LaGa3Cu,-0.592706954999999
mp-1225144,EuCuSi3,-0.21955938100000003
mp-1225152,EuGa3Cu,-0.41172684150001104
mp-1225592,DyGa3Cu,-0.532060131
mp-1226613,CeGa3Cu,-0.527511801999997
mp-1232333,CuMoO4,-1.4600715516666671
mp-1069055,Cu(BrN)2,1.546868235999999
mp-1079602,Cu(IN)4,1.005409862222221
mp-1079688,Hf4CuSi4,-0.724793425555554
mp-1102920,Cu(N3O2)2,1.42451802
mp-1105830,Zr2CuH5,-0.47619401828125
mp-1178369,CuNiO2,-1.013725287499999
mp-1178372,CuNiO2,-1.0137197425
mp-1219296,ScGaCu,-0.521974198333334
mp-1219343,ScCuSe2,-1.287751537031249
mp-1220225,NdCuAg,-0.23763690749999902
mp-1220460,Nb4CuSe8,-0.892449201730771
mp-1225215,EuGaCu,-0.3391369675
mp-1225252,EuCuSn,-0.39831796833333405
mp-1225663,DyGaCu,-0.564319998333334
mp-1226800,CeCuNi,-0.25223091666666503
mp-1227096,CaGaCu,-0.36073734166666604
mp-1228765,ErTlCu,-0.15287852444444502
mp-1238791,Cr2CuS4,-0.783912019999998
mp-1239022,Li2CuO2,-1.629481453333333
mp-1245832,CaCuN,-0.522795621111112
mp-1246140,Fe10CuN8,0.029620635263156003
mp-1247185,Mn10CuN8,-0.254193868609345