material_id,formula,formation_energy_per_atom
mp-1247901,Al3(MoSe2)4,1.874654450499993
mp-1147717,YAl3Fe2,-0.07575954666666401
mp-1220751,Nb10(AlSi)3,-0.49004522008750206
mp-1215334,ZrAl3N4,-1.358537277500001
mp-1216639,U2(AlSi)3,-0.29528358937499904
mp-1216656,U2(AlSn)3,-0.124148665624998
mp-1220742,Nb12Al3Ga,-0.217647719552079
mp-1220748,Nb12Al3Ge,-0.19691067843750001
mp-1220944,Nb12Al3In,-0.1625848245625
mp-1229023,Al3SiMo12,-0.26885592218750504
mp-1229051,Al3NiMo12,-0.16694148187500302
mp-640340,Ca4MgAl3,-0.21141954781249903
mp-1217242,Ti20(AlSi3)3,-0.6598431304166661
mp-1228436,Al3GaN4,-1.425316268125
mp-1228603,Al3Ga3Ni10,-0.46855437249999904
mp-505229,Al3FeSi2,-0.23219943958333203
mp-1208898,SmAl3Ni,-0.585640099500018
mp-1214868,Al3(O2F)2,-3.290302959722222
mp-1214871,Al3Te3Br,-0.6372583432142851
mp-1229262,Al3(PO8)2,-1.603483541156462
mp-28693,Al3Te3I,-0.5306426749999991
mp-4054,YAl3Ni,-0.590546874999999
mp-645326,Al3Bi5I12,-0.7034518745
mp-675601,Al3NO3,-2.854581422142857
mp-1211232,LaAl3Ni2,-0.630392334999999
mp-569071,La5Al3Ni2,-0.399699551999999
mp-1105661,Tb2Al3Ge4,-0.5194793031481431
mp-1179976,Nd2Al3Ge4,-0.53570339273148
mp-1182255,Ca2Al3O8,-2.6640069015384613
mp-1188179,Er2Al3Ge4,-0.412034309999999
mp-1188696,Ho2Al3Ge4,-0.419657118888887
mp-1189097,Pr2Al3Ge4,-0.498371827592589
mp-1189494,Dy2Al3Ge4,-0.49408365074074106
mp-1190248,Sm2Al3Ge4,-0.466323014444442
mp-1190462,Gd2Al3Ge4,-0.46312799055555504
mp-18232,Ce2Al3Ge4,-0.46708660166666605
mp-669456,La2Al3Ge4,-0.548753113888889
mp-762236,Al3CrO6,-3.146080477999999
mp-1218865,Sr2Al3In,-0.293060894444443
mp-1199974,Al3Pb5F19,-3.144191888055529
mp-1197073,Ba5Al3F19,-4.071338076481481
mp-1208679,Sr5Al3F19,-4.066676867407407
mp-558775,Al3Pb5F19,-3.142488636759234
mp-1217033,TiAl3Ge,-0.146581511666666
mp-1181028,K3Al3Si3O16,-2.171296593669999
mp-1221194,Na4Al3FeO8,-2.635279114719828
mp-1224621,La20Al3Si9O52,-3.740091067500001
mp-1227210,Ca6Al3(Si4N9)2,-1.356357302857143
mp-1227241,Ca8Al3(FeO4)5,-2.782973514166665
mp-532803,YAl3(Si5N8)3,-1.38395061127907
mp-690136,Mg4Al3(HO)17,-1.9878308838109762
mp-705871,Ca7Al3Si10N21,-1.3299148131707321
mp-714664,Rb2NaAl3F12,-3.634519097854406
mp-1210830,Mn2Al3Si3O14,-2.77509425799373
mp-1214212,Ca2Al3Si3O13,-3.288430375476191
mp-542451,Rb2NaAl3F12,-3.646907238409961
mp-560176,K2NaAl3F12,-3.64101468504885
mp-1223371,La2Al3GaPd4,-0.8957534851250011
mp-1226834,Ce2Al3GaPd4,-0.7997751137499981
mp-1214293,Ca2Al3Si3O14,-3.058252558181817
mp-1180600,LiMg(AlH4)3,-0.189497738872549
mp-568785,NaAl3NiCl12,-1.839185802139959
mp-1223770,KAl3(SiO4)3,-3.044453803714913
mp-1197331,HoAl3(H3C)12,-0.170566960673076
mp-1208341,TbAl3(BO3)4,-3.249677253666666
mp-1208886,SmAl3(BO3)4,-3.242215852583333
mp-1212149,HoAl3(BO3)4,-3.250490423083333
mp-1212433,KAl3(P2O9)4,-1.7981929204040181
mp-1212741,EuAl3(BO3)4,-3.139319825083332
mp-1215069,Al3Co(PO4)4,-2.800954206711309
mp-1215146,Al3P8NO36,-1.4367579116071432
mp-556804,PrAl3(BO3)4,-3.230309770166666
mp-6535,NdAl3(BO3)4,-3.235679775958333
mp-1019731,EuAl3(BO3)4,-3.139404160583333
mp-1106277,ErAl3(BO3)4,-3.252176363833332
mp-1208321,TbAl3(BO3)4,-3.2506204706666653
mp-1208860,SmAl3(BO3)4,-3.2420914340833322
mp-1212105,HoAl3(BO3)4,-3.251167033583333
mp-1212827,DyAl3(BO3)4,-3.250951523916666
mp-1214839,Al3Bi(BO3)4,-2.936361278833333
mp-13516,TmAl3(BO3)4,-3.253034671833333
mp-15359,GdAl3(BO3)4,-3.239803282333334
mp-6062,YAl3(BO3)4,-3.244045756333333
mp-7337,NdAl3(BO3)4,-3.234371249708333
mp-1217823,Ta2Al3V4C3,-0.551698304659716
mp-1221239,Na4Al3Ge3O13,-2.499076439805098
mp-1221304,Na3Al3Si3O16,-2.431246359365516
mp-1221445,Na3Al3Ge3O16,-2.001641923965516
mp-560209,Li9Al3P8O29,-2.8696699927988343
mp-1106382,KAl3(SO7)2,-2.0001846536125
mp-1179134,SrAl3(PO7)2,-2.368454261464285
mp-1180189,NaAl3Cr2O14,-1.853652211068964
mp-1181915,CeAl3(PO7)2,-2.610833068964285
mp-1189579,NaAl3(SO7)2,-1.971617746318965
mp-1214482,BaAl3(PO7)2,-2.373993125464284
mp-12309,Cs2NaAl3F12,-3.653021051149425
mp-1246682,Mg2Al3MoS8,-1.321667652857142
mp-1246745,Mg2MnAl3S8,-1.350297870566501
mp-1247020,Mg2Al3CrS8,-1.390943683571427
mp-1247022,Mg2TiAl3S8,-1.47241379095238
mp-1247119,Mg2Al3VS8,-1.399433079999999
mp-1247155,Mg2Al3WS8,-1.265116464285713
mp-13634,Cs2LiAl3F12,-3.662050771257982
mp-1215156,Al3P3H7O12,-1.754567976307143
mp-1216888,U3Al3CoRh2,-0.50426701888888
mp-10209,Y3Al3NiGe2,-0.7345551466666661
mp-1080528,U3Al3NiRu2,-0.37022883444444205
mp-1095560,Zr3Al3Ni3H2,-0.6472235138636371
mp-1205920,Er3Al3CoGe2,-0.7351710099999991
mp-1216771,U3Al3CoRu2,-0.44478783944444106
mp-12388,Er3Al3NiGe2,-0.7403836566666661
mp-553943,Ba4Al3Cu2F21,-3.613273952083333
mp-1005666,Sc3Al3C2O5,-2.564503754999999
mp-1201626,Al3Co(W3C)3,-0.113523853687489
mp-1020627,SrLiAl3N4,-1.3178914003703701
mp-1196246,Al3P2(H4O7)2,-2.230497879232803
mp-1221481,Na2Al3As9O28,-2.017086365720443
mp-1227590,Ca2Al3O6F,-3.544253495833333
mp-24601,Al3Si2H3O10,-2.795259943819444
mp-555621,RbAl3(P3O10)2,-2.931556924678571
mp-1019788,K4Al3(SiO4)3,-3.029408297909091
mp-542090,Na4Al3(SiO4)3,-2.9962180268416923
mp-1196233,EuAl3(PbO4)2,-2.849076464464297
mp-14760,LuAl3(PbO4)2,-2.98086390797619
mp-21567,SmAl3(PbO4)2,-2.982744790178571
mp-21618,NdAl3(PbO4)2,-2.976684114464278
mp-21706,GdAl3(PbO4)2,-2.979474422857141
mp-8888,HoAl3(PbO4)2,-2.986323307857142
mp-1207869,Y3Al3V2O12,-3.396105122
mp-1207891,Y3Al3Cr2O12,-3.414867023624999
mp-1207916,Tm3Sc2Al3O12,-3.834630633250002
mp-1209040,Sm3Sc2Al3O12,-3.78900482125
mp-1212436,Ho3Sc2Al3O12,-3.824426375624998
mp-1213017,Gd3Sc2Al3O12,-3.787820220125
mp-1213138,Dy3Sc2Al3O12,-3.8226098141250002
mp-1213214,Er3Al3Cr2O12,-3.448679456874999
mp-1213255,Er3Sc2Al3O12,-3.829981252249999
mp-1213328,Eu3Sc2Al3O12,-3.492927743375
mp-14678,Y3Sc2Al3O12,-3.801849305875
mp-1215114,Al3P2H6O11,-2.02414313280844
mp-1221765,Na3Al3Si3O14,-2.696096143223388
mp-1217784,SrYAl3O7,-3.557073157083333
mp-1218014,SrPrAl3O7,-3.550316002222221
mp-1218016,SrSmAl3O7,-3.560721565833332
mp-1218172,SrNdAl3O7,-3.555335341874999
mp-1218220,SrLaAl3O7,-3.581151387083333
mp-1227104,CaYAl3O7,-3.548793484583333
mp-1227109,CaSmAl3O7,-3.553261429583333
mp-1227111,CaLaAl3O7,-3.572430546666666
mp-1227113,CaPrAl3O7,-3.543019718055555
mp-1227115,CaNdAl3O7,-3.547924586458332
mp-1229197,Al3Si3(PbO8)2,-2.355660196041666
mp-1226510,CeY2(AlPd)3,-0.875248127037034
mp-1226822,Ce2Y(AlPd)3,-0.842853488518522
mp-1218880,Sr2Al3FeO8,-3.117777364285714
mp-1227119,CaYAl3O7,-3.551931291666666
mp-1227186,CaLaAl3O7,-3.574616511249999
mp-558602,CsAl3(P3O10)2,-2.9289646942504097
mp-1223440,La6Al3Fe10As,-0.280981802875001
mp-1212809,EuAl3(BO3)4,-3.139135537583335
mp-560801,GdAl3(BO3)4,-3.239767968333333
mp-1200456,K3Al3OF12,-3.329606176671052
mp-638521,Er5Al3Ni3Ge4,-0.783890886333332
mp-1229297,Ce3Al3Pd2Pt,-0.8331513677777751
mp-1195185,K2NaAl3F12,-3.64017457629885
mp-1200284,Al3Si3Pb2O13,-2.8896945548809523
mp-732195,Ca2Al3Si3O13,-3.297947133333334
mp-2646988,Sc2Al3Mo4C3,-0.41113892645833405
mp-1198782,Ca2Al3H3O8,-2.873662701328125
mp-1210996,Mg2Al3(SiO3)6,-2.199560477068966
mp-1214480,BaAl3(PO7)2,-2.375000770964285
mp-1217002,UAl3Fe7Si2,-0.194276696923076
mp-1222445,LuAl3Fe7Si2,-0.24872429435897303
mp-756662,Al3Cr3(SbO8)2,-2.27057403
mp-1020107,LiCaAl3N4,-1.347443300648148
mp-1220919,NaAl3Si3O11,-3.233641933132183
mp-1220946,NaAl3(SiO4)3,-2.931882703756807
mp-1223669,KAl3(SiO4)3,-2.952631854855264
mp-1223735,KAl3(SiO4)3,-2.953647443539475
mp-1226735,CsAl3(SiO4)3,-2.9543915765607993
mp-1200599,NaAl3(PO7)2,-2.12106491015825
mp-1173748,Na4Al3Si3NO15,-2.423809523096817
mp-1173771,Na4Al3Si3ClO16,-2.632374902796934
mp-1173811,Na4Al3Si3NO15,-2.269834103481431
mp-1173847,Na4Al3Si3NO14,-2.35246753542069
mp-1181360,NaAl3Fe6(SO19)2,-0.9621619725275851
mp-1212431,K3Al3Si3(WO3)4,-1.68466900587
mp-1216259,Y2Al3Ga3(BO3)8,-3.008589225395833
mp-1218613,Sr7Ca2Al3(O4F)3,-3.435849286851852
mp-1221172,Na4TaAl3(PO4)6,-2.9310436942291513
mp-1221255,Na4Al3Cr(P2O7)4,-2.8355226064240933
mp-1221340,Na4Al3Si7(HO3)8,-2.611113988598201
mp-1229069,Al3Tl4Fe(As2O7)4,-1.9299713141666681
mp-1229173,Ba12Sm4Al3(CoO6)5,-2.838163261666667
mp-1232353,Sr3NdTaAl3O12,-3.391752126241667
mp-1250508,RbAl3Cd(SiO4)3,-3.037076059125
mp-1351504,Al3Tl4Fe(As2O7)4,-1.216415691666667
mp-2712833,Na14Nb5Al3(SiO4)12,-2.938165522349313
mp-2712850,NbAl3SiS5O24,-2.405066493946079
mp-2712914,NbAl3P2(SO6)4,-2.5055930189986
mp-2712974,Na14Ta5Al3(SiO4)12,-3.015563113609475
mp-2713074,TaAl3SiS5O24,-2.438498692691177
mp-2713092,TaAl3P2(SO6)4,-2.54112769382213
mp-2713184,Na5TiAl3(PO4)6,-2.905228696446676
mp-2713191,Na5Al3Ge(PO4)6,-2.7778576723013773
mp-2713245,Na4NbAl3(PO4)6,-2.893843632983537
mp-2713465,Na5ZrAl3(PO4)6,-2.929351841745821
mp-2713628,Na4TaAl3(PO4)6,-2.92741179054494
mp-2713754,Na2Nb5Al3(PO4)12,-2.913368330835328
mp-2713872,Na2Ta5Al3(PO4)12,-3.004203203692471
mp-2714070,Na7CaAl3(PO4)6,-2.845229798394609
mp-2714118,Na7MgAl3(PO4)6,-2.841436347703553
mp-2714268,Na7Al3Zn(PO4)6,-2.760095875549082
mp-2716421,Na5HfAl3(PO4)6,-2.9489808749936843
mp-2716525,Na5Al3Sn(PO4)6,-2.7879751081988142
mp-532676,LiMgAl3(SeO4)6,-1.780080560354166
mp-676431,Na4Al3Si9ClO24,-3.146950736232127
mp-677121,KBaAl3Si5O16,-3.340123225278845
mp-677223,NaCaAl3(SiO4)3,-3.230799311943965
mp-677716,RbAl3Cd(SiO4)3,-3.0236475735
mp-686614,TaTi9Al3Zn23O48,-2.50724352211111
mp-695365,LiAl3Si9(N7O)2,-1.538472271839081
mp-695545,TaTi9Al3Zn23O48,-2.508509041634921
mp-696776,BaAl3P2(HO7)2,-2.517980785990258
mp-1198448,NaAl3Si3(HO6)2,-2.983803500899014
mp-1200795,KAl3Si3(HO6)2,-3.00742880677381
mp-1229312,Al3P3C4NO13,-2.048112669851191
mp-706525,NaAl3P2(HO3)4,-2.5991292135529562
mp-2714707,NaAl3Zn(SO4)6,-2.232857107039409
mp-2714747,NaCaAl3(SO4)6,-2.350604455610837
mp-2714755,NaMgAl3(SO4)6,-2.3316617503251242
mp-1218535,SrAl3PSO14,-2.309499231107141
mp-1226903,CaAl3PSO14,-2.287321638107143
mp-42458,SrAl3P2(HO2)7,-2.455293489556877
mp-39140,Na4Al3Si3HO13,-2.957191427573635
mp-677283,Sr4NdNb2Al3O15,-3.410130186900001
mp-1204101,Al3P3C4NO13,-1.985218542767858
mp-1211354,La6Al3Ni4SnRu,-0.519956240333333
mp-1202625,Ba2Nd2Al3(B4O9)3,-2.8851918180434772
mp-1198443,Na2Al3P3(HO7)2,-2.784416246528632
mp-1200028,Al3PH29(SO14)2,-1.674820818109409
mp-1265272,LiMgAl3(SO4)6,-2.336295159380952
mp-677680,LiMgAl3(SO4)6,-2.330243503809523
mp-698160,Al3P2H14(O5F)3,-2.140880126399615
mp-732346,Al3P2H14(O5F)3,-1.139621255588803
mp-1210341,Na4Al3Si3NO12,-2.760837660457271
mp-1210353,Na4Al3Si3SO16,-2.851285614185823
mp-1214863,Al3Si3Ag4IO12,-2.529541182463767
mp-23145,Na4Al3Si3ClO12,-3.081129688500749
mp-23147,Na4Al3Si3BrO12,-3.060228327196402
mp-23149,K4Al3Si3ClO12,-3.107361659304348
mp-23648,Li4Al3Si3ClO12,-3.122293324927536
mp-23651,Na4Al3Ge3IO12,-2.562604692196403
mp-23655,Na4Al3Si3IO12,-3.02832147197901
mp-554733,Li4Al3Ge3BrO12,-2.645562806449274
mp-556886,Li4Al3Ge3ClO12,-2.663627579275362
mp-557456,Li4Al3Ge3IO12,-2.615438569710145
mp-559084,Na4Al3Ge3BrO12,-2.595800224587705
mp-559286,Na4Al3Ge3ClO12,-2.617374402413793
mp-1220862,Na6Al3Fe3(TeO6)4,-2.070361827873563
mp-1173714,Na4Al3Si3NO14,-2.85314203982069
mp-1173789,Na4Al3Si3H3O14,-2.618984051639527
mp-1221226,Na4Al3Fe(SiO3)8,-3.050296715137932
mp-1265310,Na4Al3Ge3NO15,-2.318953557712201
mp-677474,Na4Al3Ge3NO15,-2.222211397904509
mp-694964,Na4MnAl3Si3O16,-2.766303603275862
mp-720111,Na4Al3Si3ClO16,-2.611670237056193
mp-1209704,Rb2Na2Al3(SiO4)3,-2.975448708079936
mp-1209752,Rb2Na2Al3(GeO4)3,-2.521125392852664
mp-1203545,Na2Al3Si3NO13,-2.477735451375393
mp-686547,Al3H36C12N3F4,-0.326163806551723
mp-1232342,Sr3LaTaAl3O12,-3.403517466116666
mp-1220886,NaAl3P2(HO3)4,-2.600357126962047
mp-1221210,Na4Al3Si3ClO12,-3.057006902413793
mp-1225171,Mn2Al3Fe(PO7)3,-1.9760598981596882
mp-1227789,Ca8Be5Al3(Si9O28)2,-3.210040931611111
mp-1232350,Sr3NdTaAl3O12,-3.383404067491666
mp-695170,Nd3Al3Si3(NO6)2,-3.245123312282608
mp-676449,Na4Al3Si3NO13,-2.791942698146552
mp-694012,Ca3YAl3B4O15,-3.327550050544871
mp-1210669,MgAl3SiBO9,-3.307048322111113
mp-1214903,Al3FeSiBO9,-2.9564740934444442
mp-23915,Ca2Al3Si3HO13,-3.2729136826704552
mp-24802,Sr2Al3Si3HO13,-3.272362653125
mp-1232343,Sr3LaTaAl3O12,-3.415466272116666
mp-1219624,RbNa2Al3Si3O13,-2.923735129784483
mp-1263648,Al3H36C12N3F4,-0.307569124482758
mp-770625,Li4Al3Cr3(SbO8)2,-2.5971130297619043
mp-1220920,NaAl3Si3(HO6)2,-2.980523568756157
mp-1221208,NaMgAl3Si3O16,-2.238961782140804
mp-1223717,KAl3Si3(HO6)2,-3.000553216892856
mp-720104,Na4Al3Ge3NO14,-2.424855496420689
mp-677233,NaAl3Tl2(SiO4)3,-2.874994992883142
mp-693857,NaLi2Al3(SiO4)3,-3.075616974787903
mp-1094103,NaMgAl3Si8(HO6)4,-2.958265346375105
mp-1173755,Na4Al3Si3B(O3F)4,-2.9896769259142193
mp-1221308,Na3CaAl3Si3SO16,-3.003800358208811
mp-1223658,KAl3Fe2Si2(HO6)2,-2.727997927715909
mp-1227719,Ca4Al3CrSiBO14,-3.224635318506944
mp-1227798,Ca8Be5Al3Si18(HO14)4,-3.192705398191489
mp-1227863,BaSm5Al3Si9N20O,-1.576027028205127
mp-1233062,BaMgAl3P2(HO7)2,-2.6545148955124223
mp-1235984,BaLiAl3P2(HO7)2,-2.581179717613871
mp-1252733,Na3CaAl3Si3SO16,-3.032469270245848
mp-1368522,Na3CaAl3Si3SO16,1.257854471420817
mp-2712536,Na2TaAl3P4(SO12)2,-2.7625379386202793
mp-2712714,Na2NbAl3Si2(SO6)4,-2.545522750909962
mp-2712733,Na2TaAl3Si2(SO6)4,-2.5755760129655183
mp-2712780,Na2NbAl3P4(SO12)2,-2.727858780546206
mp-2713407,Na5ZrAl3Si3(SO8)3,-2.672286668446066
mp-2713525,Na5Al3Si3Ge(SO8)3,-2.530672273189656
mp-2713545,Na4TaAl3Si3(SO8)3,-2.675129086193437
mp-2713713,Na4NbAl3Si3(SO8)3,-2.6464521080179972
mp-2713785,Na2Nb5Al3Si6(SO8)6,-2.6571270798251243
mp-2713946,Na2Ta5Al3Si6(SO8)6,-2.739425234634647
mp-2714099,Na7MgAl3Si3(SO8)3,-2.593748178467199
mp-2714185,Na7Al3ZnSi3(SO8)3,-2.518354633629802
mp-2714191,Na7CaAl3Si3(SO8)3,-2.599332282654192
mp-2714247,Na5NbAl3SiP5O24,-2.8903697759857483
mp-2714369,Na6TaAl3Si4(SO12)2,-2.754804908848563
mp-2714415,Na6NbAl3Si4(SO12)2,-2.7269195210818973
mp-2714800,Na7NbAl3Si3(PO8)3,-2.887104665453263
mp-2715208,Na7TaAl3Si3(PO8)3,-2.917847487339441
mp-2715312,Na6TaAl3Si2(PO6)4,-2.9207595577711833
mp-2715341,Na6TaAl3Si2(PO6)4,-2.9183559203545153
mp-2715392,Na6NbAl3Si2(PO6)4,-2.886909857921181
mp-2715452,Na6NbAl3Si2(PO6)4,-2.8892462357545172
mp-2715652,Na8TaAl3Si5SO24,-2.840882836965107
mp-2715803,Na8NbAl3Si5SO24,-2.810532280917488
mp-2715835,Na3NbAl3P5SO24,-2.811442386257267
mp-2715905,Na5TaAl3SiP5O24,-2.92183503309686
mp-2715921,Na3TaAl3P5SO24,-2.844676774203214
mp-2716147,Na8TaAl3Si4(PO12)2,-2.9179779804203223
mp-2716156,Na8NbAl3Si4(PO12)2,-2.885610209769529
mp-2716332,Na5HfAl3Si3(SO8)3,-2.69017156254863
mp-989539,Rb2AlTlH6,-0.19802365458333301
mp-989575,Cs2AlTlH6,-0.20625497101436802
mp-989642,Cs2NaAlH6,-0.314065184818965
mp-989648,Cs2AlGaH6,-0.160572485431034
mp-1229065,AlCuSeS,-0.8500360760937401
mp-1048370,Ba2AlW3O7,-1.755340748076923
mp-1220851,NaAlSiO4,-2.95205782841133
mp-1220853,NaAlGeO4,-2.563458099125615
mp-1251093,Li2AlFeO4,-2.453720916770833
mp-560334,NaAlSiO4,-3.14732338966133
mp-770729,Li2AlFeO4,-2.432313661145833
mp-772436,Li2AlFeO4,-2.429174429114582
mp-1222553,LiAlSiO4,-3.180421095238096
mp-1576333,MnAl(WO4)2,-2.389250874827585
mp-2226774,MgAlSbO4,-2.371845797857143
mp-571132,LiMg10AlH24,-0.271865879537037
mp-683949,AlP3(NCl3)3,-1.217456713839285
mp-754121,Li2AlCoO4,-2.337372250833334
mp-755524,Li2AlFeO4,-2.487378211458333
mp-755669,Li2AlNiO4,-2.199541205833333
mp-755737,Li2AlVO4,-2.699242892708334
mp-1020023,Li3AlSiO5,-2.9747119095
mp-1192933,CsAlSiO4,-3.186565120307881
mp-1198062,LiAlSiO5,-2.538204936041666
mp-1200100,KAlCO6,-1.566181808305556
mp-1203322,AlP3H10O11,-1.7767906255571422
mp-1204433,LiAlGeO5,-2.095387747604167
mp-14722,NaSrAlF6,-3.825200985153257
mp-15515,BaNaAlF6,-3.827905487097701
mp-559689,LiAlSiO4,-3.18335428297619
mp-570577,SrAlSi4N7,-1.401743141538463
mp-570828,AlHg2SbCl4,-1.074121185312503
mp-6434,RbAlSiO4,-3.185218679642857
mp-6765,Li3AlGeO5,-2.632445784
mp-770357,Li2AlNiO4,-2.206576803020834
mp-770519,Li2AlVO4,-2.697788330520834
mp-770522,Li2AlVO4,-2.696039519583333
mp-770553,Li2AlCoO4,-2.337489377395833
mp-770586,Li3AlCrO5,-2.536767939249999
mp-770691,Li3AlFeO5,-2.291145247999999
mp-770707,Li2AlFeO4,-2.488819323333333
mp-770733,Li2AlFeO4,-2.4878525792708333
mp-1217055,TiAlFeO5,-2.882356848541667
mp-1228412,Ba4Al(IrO5)2,-2.468470486764705
mp-559759,CaAlBO4,-3.322331291309524
mp-1048236,Ba2AlMo3O8,-2.2065837864285722
mp-1218881,Sr2AlV11O22,-2.6845997072222243
mp-1226667,CeAl(CuNi)2,-0.286746441666666
mp-2226391,MgAlSbO4,-2.277358322142856
mp-2227439,MgAlCrO4,-2.672529713571429
mp-1197321,K2AlB5O14,-1.9117197784242401
mp-1205325,KNa2AlH6,-0.291113678375
mp-1218396,SrAlSiN3,-1.4913587564583222
mp-1223704,KAlCl2O,-2.50311299345
mp-1228786,Ba2AlCuF9,-3.551207455384615
mp-1229258,AlC4NCl2,0.126156773124998
mp-1259114,KNa2AlH6,-0.16576667987500002
mp-555284,Ba2NdAlO5,-3.3474437825
mp-560173,KAlSiO4,-3.184763080916666
mp-600151,KNa2AlH6,-0.15617826911034402
mp-697618,NaAlSiO4,1.105029934267241
mp-1202807,AlH12(NF2)3,-1.544136671818182
mp-1189227,NaAl(PS3)2,-0.947126742066501
mp-1225213,Gd8MgAlNi2,-0.25482662583333104
mp-1225829,CsTiAlO4,-3.219980293998358
mp-1228917,AlInGaSb3,-0.22115977000000403
mp-1246619,MgAlWS4,-1.149757968571428
mp-1182993,AlC7IN,0.9221746515000001
mp-1251156,Sr2AlCu3O7,-2.033570744615384
mp-1251643,Ca2AlVO5,-3.174685863333334
mp-1253743,Ca2TiAlO5,-3.363047490925927
mp-1257214,Ca2AlFeO5,-2.921796394444445
mp-1257498,Ca2AlNiO5,-2.7224068333333333
mp-1261272,Ca2AlWO5,-2.804067100555555
mp-1261316,Ca2AlCrO5,-3.121868097222222
mp-1264781,Ca2AlCuO5,-2.688202504444444
mp-1375904,Ca2AlAgO5,-2.4987049396296293
mp-18907,Ca2MnAlO5,-3.025843104770115
mp-19931,Na2MgAlF7,-3.573581868432602
mp-1036395,Mg14AlCdO16,-2.8548329428125
mp-1036399,Mg14AlBO16,-2.797423536848958
mp-1036461,Mg14AlCO16,-2.73002129703125
mp-1036469,Mg14AlBiO16,-2.737568795312499
mp-1036470,HfMg14AlO16,-2.84100152125
mp-1036504,CsMg14AlO16,-2.720543489989223
mp-1036505,SrMg14AlO16,-2.8914781171875
mp-1036519,BaMg14AlO16,-2.796311076875
mp-1036525,Mg14NbAlO16,-2.819798330312499
mp-1036532,NaMg14AlO16,-2.985548835980603
mp-1036537,LiMg14AlO16,-3.023898988229166
mp-1036557,Mg14TiAlO16,-2.907061824479166
mp-1036571,KMg14AlO16,-2.891882111164062
mp-1036574,RbMg14AlO16,-2.8193062855468742
mp-1036586,Mg14AlCrO16,-2.8982261612499993
mp-1036604,Mg14AlSiO16,-2.821791022812499
mp-1036610,Mg14AlZnO16,-2.8970391328125
mp-1036618,Mg14AlNiO16,-2.9020941793749992
mp-1036619,Mg14AlCoO16,-2.9082207884375
mp-1036641,Mg14AlVO16,-2.8949935596875003
mp-1036646,Mg14AlSnO16,-2.78174585890625
mp-1036650,Mg14MnAlO16,-2.891239595872845
mp-1036652,Mg14AlCuO16,-2.9097517825
mp-1036658,Mg14AlFeO16,-2.887209540624999
mp-1036688,CaMg14AlO16,-2.9489935750000003
mp-1036690,YMg14AlO16,-2.876087932499999
mp-1045008,Ba2AlW3O7,-1.8094774503846152
mp-1048025,Ba2Ti3AlO7,-2.781743605769231
mp-1048073,Ba2AlCu3O7,-1.859185651153846
mp-1048096,Ba2AlSn3O7,-1.941501601538461
mp-1048162,Ba2AlV3O8,-2.567120058571429
mp-1048319,Ba2Mn3AlO7,-2.272259519907161
mp-1048330,Ba2AlCr3O7,-2.328945821153846
mp-1048346,Ba2AlV3O7,-2.352625812692308
mp-1048483,Ba2AlNi3O7,-1.840037855
mp-1252662,Mg14AlCO16,-2.701267352656249
mp-1219617,RbAlSi3O8,-3.238604710961538
mp-1222486,Li5Al(SiO4)2,-2.925101434791666
mp-1222873,Li2Al(NiO2)3,-1.917733031388889
mp-1223613,KAlSi3O8,-3.238002110173077
mp-1227987,BaAlGaO4,-3.015529935357142
mp-1228558,AlSi5(CO6)2,-2.3708335455
mp-1228948,AlGa(PO4)2,-2.850289424732143
mp-1228964,AlAg(PSe3)2,-0.5870029005014871
mp-1234205,MgAl(Bi3O5)4,-1.730392517794118
mp-1234982,MgAl(Bi3O5)4,-1.712410428676471
mp-1302787,Li2Al(NiO2)3,-1.9179876959722222
mp-1372050,Ca2AlCoO5,-2.794079868333333
mp-547017,LiAlAs2O7,-2.214197438484848
mp-1200491,KAlPO5,-2.681814821642858
mp-1214160,Ca2Al(SiO3)4,-3.158942078684211
mp-1223619,MgAlSi4O15,-2.048032897142856
mp-1096865,AlFe2BO5,-2.4362381237962962
mp-1210873,MnAlBiO5,-2.283884504428879
mp-1213112,ErAlGeO5,-3.193068186875
mp-1214877,AlNi2BO5,-2.320189297407406
mp-540905,YAlGeO5,-3.168546244374999
mp-21563,SrAlBO4,-3.227932575416666
mp-1210817,MnAlSiO5,-2.936076515678879
mp-1223240,La5AlSi2O13,-3.7618830419047633
mp-1223294,La3Al(FeO3)4,-2.667165041750001