material_id,formula,formation_energy_per_atom
mp-760251,Na2CuP2O7,-2.349647873920361
mp-769272,LiCuPO4,-2.180698851139455
mp-772597,Li2CuNiO4,-1.452863989583333
mp-776054,Li2MnCuO4,-1.788744524949713
mp-866097,CuH6BrN2,-0.526014840749999
mp-9639,BaCu(SeO3)2,-1.73323289196875
mp-9640,SrCu(SeO3)2,-1.731845364968749
mp-1213590,CuH10(ClO6)3,-0.6971274747656251
mp-561243,Sr2CuClO2,-2.505375169444444
mp-758715,Li2CuSiO4,-2.330942323749999
mp-762111,Li2CuPO4,-2.264146504747023
mp-755367,LiTa2CuO6,-2.7649147718
mp-1215494,YbZnCuP2,-0.8827929431904771
mp-1215507,YbZnCuAs2,-0.777488273
mp-1215514,YbMnCuP2,-0.9674711230870251
mp-1215694,YZnCuAs2,-0.6583687890000001
mp-1215705,YZnCuP2,-0.7645778338571421
mp-1215719,Zr2CoCuSn2,-0.45767737000000003
mp-1217421,TbZnCuAs2,-0.6653814183333331
mp-1218134,Ta2Cu(ReSe4)2,-0.43897917058330904
mp-1218982,SmZnCuAs2,-0.669901328000001
mp-1220428,Nb4Cu(CS2)2,-0.937702893636363
mp-1220693,Nb2CuCS2,-0.843836915
mp-1220978,NaMnCuSe2,-0.753654250799568
mp-1221006,NaFeCuSe2,-0.6007480472133611
mp-1222253,LuZnCuAs2,-0.6215780283333331
mp-1222418,NaFeCuS2,-0.7141205492758621
mp-1224059,Hf2CoCuSn2,-0.37642422999999803
mp-1225053,DyZnCuAs2,-0.658954987333332
mp-1226509,CeZnCuP2,-0.734047499857141
mp-2225592,MgFeCuS2,-0.6346296220000001
mp-2226158,MgFeCuS2,-0.47504016199999904
mp-755288,LiFeCuS2,-0.732636191666665
mp-758880,LiCuPO4,-2.151846682091837
mp-1215588,YbGaCuO4,-2.351465337142857
mp-1215608,Zn2GaCuSe4,-0.7497178796093751
mp-1215656,ZnFe4CuO8,-1.53802864142857
mp-1221880,Mn2CuSb2Pd,-0.092224759310345
mp-1221889,Mn2CuNiSb2,-0.259915063160915
mp-1221896,Mn2CuSb2Pt,-0.133827095977011
mp-1221901,Mn2In2CuPd3,-0.27140443114942403
mp-1221984,Mn3Fe8CuO16,-1.682522585135469
mp-1222098,Mn3Cr8CuS16,-0.9671796562068941
mp-1222317,LuGaCuO4,-2.479566843452381
mp-1222330,LuFeCuO4,-2.250434189523809
mp-1223748,InGaCuO4,-1.720036156309523
mp-1224742,Fe2CuRh3S8,-0.688937804285713
mp-1225673,CuGePSe,-0.266046975496651
mp-1226128,Cr8Cd3CuS16,-0.9541627471428561
mp-1226186,Cr8Fe3CuS16,-0.8406624999999991
mp-1226282,Cr4InCuS8,-0.8639223797619041
mp-1236152,LiCuAuO2,-0.9476341646666661
mp-2222917,MgFeCuO2,-1.293015358999999
mp-2224233,MgFeCuS2,-0.428866127999999
mp-2225320,MgFeCuO2,-1.2526998790000001
mp-2226151,MgFeCuS2,-0.413803879999999
mp-2242317,MgCoCuO2,-1.209473623
mp-672285,CuCSN,0.024059021171876003
mp-753310,Li2Cr3CuO8,-1.931841973333332
mp-759907,Li2Fe3CuO8,-1.4891592190476182
mp-775190,Li2V3CuO8,-2.216818156190477
mp-849420,Li2Mn3CuO8,-1.832307159318556
mp-6610,K3Cu(CN)4,-0.331191081684026
mp-22449,InCu(PSe3)2,-0.28764453728273304
mp-569715,CuBi(PSe3)2,-0.218068138532743
mp-1226908,CeCuGeH,-0.6074031453124981
mp-1223344,La3Co2CuO9,-2.502769931666667
mp-1103291,CuSNO3,-0.186595736249999
mp-1226394,Cr2CuSe3Br,-0.7398249317187491
mp-2219075,MgMn3CuO8,-1.820698391445624
mp-2219201,MgMn3CuO8,-1.825202016830239
mp-2232290,MgFe5CuO8,-1.359163212333332
mp-551456,Ba2CuClO2,-2.449774615
mp-552537,Sr2CuBrO2,-2.411228150833334
mp-552934,Ba2CuBrO2,-2.365879127499999
mp-753104,Li4Fe3CuO8,-1.784626450833332
mp-753919,Li4Co3CuO8,-1.605996868333332
mp-756558,Li4Cr3CuO8,-2.131852599583332
mp-756596,Li2Mn3CuO8,-1.85318307360427
mp-768828,Li3Cr3CuO8,-2.054959044
mp-769624,Li3Co3CuO8,-1.474400783999999
mp-771398,Li3Fe3CuO8,-1.666493389333332
mp-772177,Li2Fe3CuO8,-1.533865337619046
mp-773427,Li4Mn3CuO8,-1.927849628570403
mp-780873,Li2Cr3CuO8,-1.957755709047618
mp-850894,Li2V3CuO8,-2.21300424904762
mp-868007,Li3CuNi3O8,-1.280389655333332
mp-757397,V2Cu(PO4)3,-2.450501182996032
mp-772797,Ti2Cu(PO4)3,-2.805604998088624
mp-773721,Mn2Cu(PO4)3,-2.199745601655036
mp-775240,Fe2Cu(PO4)3,-2.118713424940477
mp-759776,LiCuPO4,-2.126926415484694
mp-758542,LiCuPO4,-2.1206732507227892
mp-758918,LiCuPO4,-2.128576390782313
mp-1191406,Gd3CuSiS7,-1.833644232291665
mp-1191604,Er3CuSnS7,-1.6841397852083322
mp-1207821,Y3CuSnSe7,-1.528218988867187
mp-1223193,La3GaCuSe7,-1.649771500390616
mp-17243,Pr3CuSnSe7,-1.586328023450519
mp-17486,Ho3CuSiS7,-1.799584653124997
mp-17747,Y3CuSnS7,-1.6939594264583322
mp-17916,Y3CuGeSe7,-1.5298590284505211
mp-18126,Tb3CuSnSe7,-1.543848400533853
mp-18303,Nd3CuSnSe7,-1.5831563211588322
mp-504650,La3CuSiS7,-1.940521206875
mp-505558,Dy3CuGeSe7,-1.532251464283852
mp-510011,La3CuGeSe7,-1.688348896367188
mp-510539,Dy3CuSnSe7,-1.530363031783853
mp-510566,La3CuSnS7,-1.835891927291665
mp-510567,Ce3CuSnS7,-1.695654588541664
mp-542806,Ce3CuSnSe7,-1.547657378450519
mp-554097,Sm3CuSiS7,-1.836235165624999
mp-554150,Nd3CuGeS7,-1.752089916666665
mp-554553,Ho3CuSnS7,-1.691742650624997
mp-554781,Tb3CuSnS7,-1.7123762989583322
mp-555081,Er3CuGeS7,-1.705177416458331
mp-555509,Ho3CuGeS7,-1.710859635624995
mp-555893,Pr3CuSiS7,-1.840018362708332
mp-555978,Sm3CuGeS7,-1.746015828541666
mp-556781,Y3CuGeS7,-1.712041366041666
mp-556782,Gd3CuSnS7,-1.725559871874999
mp-556962,Pr3CuGeS7,-1.750185992291665
mp-556975,Nd3CuSiS7,-1.842290476666665
mp-557517,Tb3CuGeS7,-1.732246598541665
mp-557998,Dy3CuSiS7,-1.810544322708331
mp-558042,Sm3CuSnS7,-1.725180789375
mp-558303,Ce3CuGeS7,-1.716054755624997
mp-558375,Ce3CuSiS7,-1.805704806458332
mp-558740,Dy3CuGeS7,-1.72139590895833
mp-558980,Er3CuSiS7,-1.7299277624739582
mp-560014,Pr3CuSnS7,-1.729970365624998
mp-560300,Nd3CuSnS7,-1.731557277916665
mp-560501,Tb3CuSiS7,-1.821600580624999
mp-561173,Y3CuSiS7,-1.801121410208332
mp-561499,Dy3CuSnS7,-1.702203746041664
mp-567428,Tb3CuGeSe7,-1.545870863867187
mp-567753,La3CuSnSe7,-1.649447434869789
mp-568082,La3CuSiSe7,-1.736871188450521
mp-568189,Gd3CuGeSe7,-1.56708608845052
mp-568638,Y3CuSiSe7,-1.576679984283854
mp-568779,Tb3CuSiSe7,-1.593316914283856
mp-568801,Pr3CuSiSe7,-1.635427651367187
mp-568811,Gd3CuSnSe7,-1.472212861036448
mp-568954,Nd3CuGeSe7,-1.5846004424088531
mp-569557,Dy3CuSiSe7,-1.579378002200519
mp-570045,Sm3CuSiSe7,-1.61913023595052
mp-570226,Sm3CuGeSe7,-1.571149619283853
mp-570564,Ce3CuGeSe7,-1.5498084834505201
mp-570594,Sm3CuSnSe7,-1.568526409700521
mp-571347,Pr3CuGeSe7,-1.586641349700519
mp-571468,Ho3CuSiSe7,-1.5656377367838532
mp-571472,Ce3CuSiSe7,-1.594270830533853
mp-573114,Gd3CuGeS7,-1.743606352708332
mp-582767,La3CuGeS7,-1.850407739791665
mp-641534,Nd3CuSiSe7,-1.632453711158853
mp-641576,Gd3CuSiSe7,-1.6151316113671892
mp-1176747,LiCuBO3,-2.026731745694445
mp-756867,LiCuBO3,-2.043655247916667
mp-758997,LiCuCO3,-1.634902070555556
mp-760509,LiCuCO3,-1.600897135
mp-769935,CuHCO4,-1.296739578988096
mp-758886,LiCuPO4,-2.124043995068026
mp-759334,LiCuPO4,-2.124445238520408
mp-17145,Ba3CuSb2O9,-2.340475947
mp-559044,CuCSN,0.023948139921875
mp-754984,Li2Cr3CuO8,-1.9143853429761901
mp-768294,Li2Fe3CuO8,-1.4963441144047611
mp-1215851,Yb2TiCuO6,-3.054746842916668
mp-1216142,Y2TiCuO6,-3.087970947333333
mp-1216796,Tm2TiCuO6,-3.156286001333335
mp-1217747,Tb2TiCuO6,-3.107842453666666
mp-1219008,SmMnCo3Cu,0.0036950645114940004
mp-1222460,Lu2TiCuO6,-3.166263085666666
mp-1222950,LaFeCuNi3,-0.18294694083333302
mp-1224098,Ho2TiCuO6,-3.128205833333331
mp-1225458,Dy2TiCuO6,-3.118332957666665
mp-1225752,Er2TiCuO6,-3.141656281333333
mp-1178070,Li2Cu(Si2O5)2,-2.77519211745098
mp-1191203,CuNiSbS3,-0.5527390520833321
mp-1197546,CaCuAsO5,-1.931763655625
mp-1197943,ZrTiCuO5,-2.929396739791666
mp-1200529,CuAsPbO5,-1.41888194625
mp-1205250,CuH5IO7,-0.9931099209821421
mp-12185,LiCu(PO3)3,-2.402899126232993
mp-1326455,ZnCuAsO5,-1.3694334009375
mp-1347026,MgCuAsO5,-1.6968712196875
mp-505785,CuP(HO)5,-1.413539445491071
mp-581303,NaCuPO4,-2.158766563360309
mp-672984,LiCu(PO3)4,-2.297191900661375
mp-720263,CuH4SeO5,-1.187243657485796
mp-758147,LiCu(PO3)3,-2.339163448554422
mp-759432,LiCu(PO3)3,-2.334914016232994
mp-759435,LiCu(PO3)3,-2.393930962125851
mp-761042,NaCu(PO3)3,-2.37384241734342
mp-773650,Li2V3CuO8,-2.245298681904763
mp-775165,Li2Mn3CuO8,-1.840547514497128
mp-780731,Li2Cu(PO3)3,-2.366463962873017
mp-849327,Li2Cu(PO3)3,-2.384631119539683
mp-865018,CuBiPtS3,-0.45730350640625206
mp-1214483,BaCuRu5O11,-1.530018532222222
mp-571306,Ca2Zn2CuP3,-0.76274758299107
mp-1213683,CsCuTeS3,-0.716174615220305
mp-772934,Li2Fe3CuO8,-1.498055907976189
mp-866635,CuH3NCl,-0.615526005208333
mp-1012835,SmCu(WO4)2,-2.359475323333333
mp-1041636,CaCuP2O7,-2.620108078571427
mp-1041698,ZnCuP2O7,-2.2061608012987
mp-1041741,MgCuP2O7,-2.510072194935064
mp-10966,Tb2Cu(GeO3)4,-2.518235522807017
mp-1104648,Na2Cu(SeO5)2,-1.080260628496408
mp-1104990,Cr2Cu(NO2)4,0.525912954
mp-1112878,K2TaCuF6,-2.554294685183333
mp-1178904,V2CuP2O15,-1.386989626214286
mp-1181182,Na4CuTe2O29,-0.348772508440293
mp-1181573,CuC2(NO3)2,-0.851340331818181
mp-1182494,BeCuO5F4,-1.195264333636363
mp-1182559,BaCu(C2O7)2,-0.875221287250001
mp-1182577,Ba2Cu(C3O8)2,-1.838465704799999
mp-1182624,CuC4(NO5)2,-0.8733561385294121
mp-1190199,CuSb6(SO8)2,-1.752400725
mp-1191302,Li6Cu(B2O5)2,-2.499590466031746
mp-1191344,U2Cu(SiO9)2,-1.653616063043478
mp-1191650,VCuBi2O7,-1.713517193181818
mp-1191858,Tl4CuTeO6,-1.151453162083336
mp-1192074,CuC3N2O5,-0.705672421818181
mp-1192124,U2CuSi2O17,-1.594680856590908
mp-1192782,CuRe2(H2O3)4,-1.5772633076086962
mp-1192993,BeCuO5F4,-0.920698104090909
mp-1193540,V2CuH3O7,-1.756317667596154
mp-1194301,Li3CuB3O7,-2.451169335535713
mp-1194515,U2Cu(SO11)2,-0.883724073148147
mp-1195492,CoCuCO5,-1.2041728015625
mp-1196039,CuH10SO9,-1.342359923095238
mp-1196166,CuP4S3Br,-0.445553596507934
mp-1198330,CuC32(NF2)8,-0.520242902631579
mp-1198701,Li6Cu(B2O5)2,-2.498660974444444
mp-1198812,TbCu(WO4)2,-2.377088294166666
mp-1199388,CuC4(NO5)2,-0.726413035294118
mp-1199423,Na4CuTe2O29,-0.44867972732918204
mp-1200215,CuH12(NO6)2,-1.102484625740741
mp-1201409,CuP6Pd11O34,-1.304843850920329
mp-1202008,CuAg2(NO3)4,-0.7462643693859651
mp-1202551,CuAsH3O5,-1.317893205
mp-1203208,Cs3Hf2CuTe10,-0.9878017191020111
mp-1203729,Ba2Cu(C2O3)6,-0.7963419790909091
mp-1208000,Tm2Cu(GeO3)4,-2.534283519473685
mp-1209632,PrCu(WO4)2,-2.354457971805556
mp-1210132,Nb3TlCuCl9,-1.510173250595237
mp-1210874,Lu2Cu(GeO3)4,-2.537087097017544
mp-1212236,K2Cu(C2O5)2,-1.288025196147058
mp-1212369,Ho2Cu(SiO3)4,-3.240708382631579
mp-1212638,Gd2Cu(GeO3)4,-2.491866265789473
mp-1213059,Eu2Cu(GeO3)4,-2.283422741578948
mp-1213119,Dy2Cu(SiO3)4,-3.2369672854385962
mp-1213368,EuCu(WO4)2,-2.2458249966666672
mp-1213434,CuP4(RuO7)2,-2.100515305646257
mp-1213485,CuS2(NO4)2,-0.36220152576923004
mp-1213607,CuAsHO4,-1.3101071696428561
mp-1213939,CeCu(WO4)2,-2.351124633749999
mp-1215341,ZrCu(PO6)2,-1.7173328349553572
mp-1221852,Mn3Cu(SeO3)4,-1.475469672158405
mp-1227004,CuNi3(CO3)8,-0.9833534236111111
mp-1238869,TiCrCuS4,-0.9507682954761891
mp-1239126,ZrCrCuS4,-1.015375171785714
mp-1239143,TiCrCuS4,-1.121622049404761
mp-1239150,HfCrCuS4,-1.030376937499998
mp-1266446,Li10Cu(SiO5)2,-2.40484273231884
mp-13361,Cd2Cu(PO4)2,-2.140788739175835
mp-1337257,Ca2Ta2CuO8,-2.9693044961282054
mp-1343791,BeCuO5F4,-0.547268220909091
mp-1348355,CaCuP2O7,-2.5859959758441553
mp-1354568,CuC4(NO5)2,4.500015775294117
mp-1357031,Nb3TlCuCl9,0.811065554404761
mp-1361722,Ba2Cu(C2O3)6,2.703761413030302
mp-1366216,CuSbAs2O7,-1.3419593260227272
mp-1370462,Li2CuP2O7,-0.7040293209126971
mp-1378836,ZnCuP2O7,-2.203899711753246
mp-1379862,MgCuP2O7,-2.480420514480519
mp-1390274,LiCuCO3,-1.130142452222222
mp-1397105,RbNb3CuCl9,0.6557960219642861
mp-16056,Ho2Cu(GeO3)4,-2.524809020526315
mp-16057,Er2Cu(GeO3)4,-2.530019172105263
mp-16772,LaCu(WO4)2,-2.392477915416666
mp-17738,Sr2Cu(SeO3)3,-1.9164332651354172
mp-17982,SmCu(WO4)2,-2.36571629875
mp-18033,Na2Cu(Si2O5)2,-2.780759016044625
mp-18538,TbCu(WO4)2,-2.371085475555555
mp-2215927,Mn2Cu(PO4)3,-2.202584269155035
mp-22196,Dy2Cu(GeO3)4,-2.5213368922807
mp-2228525,MgMn4CuO8,-1.8761535269088672
mp-2228662,MgCo5CuO8,-1.197318155666666
mp-23955,CuH2SeO5,-1.116800665538194
mp-24522,CuH2SO5,-1.449014392777778
mp-25380,CuPO4F,-1.729450658520407
mp-504864,YCu(WO4)2,-2.372273168333333
mp-504997,NdCu(WO4)2,-2.360119415624999
mp-505166,ErCu(WO4)2,-2.3839313258333332
mp-505168,DyCu(WO4)2,-2.379824535972221
mp-505194,GdCu(WO4)2,-2.356497663749999
mp-541087,CuAs4(H5O8)2,-1.39227913266129
mp-545525,NbCuO3F,-2.39608348
mp-554430,NaCu(IO3)3,-1.008408598312808
mp-555519,Li2Cu(WO4)2,-2.065498311282051
mp-555821,Na4Cu(AsO4)2,-1.8498648533678161
mp-556252,Na4Cu(MoO4)3,-1.983658005525863
mp-556402,CuAg5As3O11,-1.115236050041666
mp-556842,CuH12(N5O4)2,-0.425232869193548
mp-557618,Rb4CuSi2O7,-2.3968598675
mp-557871,CuAsPbO4,-1.502168412499999
mp-558431,LiCu(PO3)3,-2.400873266590136
mp-559126,NaZr2CuF11,-3.467506669091953
mp-559920,TbCu(WO4)2,-2.361350544999999
mp-560675,K6Cu(SiO4)2,-2.311137563147058
mp-561495,Cs4CuSi2O7,-2.377665138830027
mp-569710,RbNb3CuCl9,-1.65395203625
mp-605120,CuH10SO9,-0.556147526190476
mp-615173,CuBi(WO4)2,-1.8554361816666671
mp-6278,Zn2Cu(AsO4)2,-1.630548818846154
mp-643052,CuH6(NO)4,-0.543920961833333
mp-655377,CuH10SO9,-1.068162050238095
mp-671957,NaZr2CuF11,-2.32256373775862
mp-672113,K2VCuS4,-1.253904014312499
mp-672959,Li2Cu(PO3)4,-2.463637537644111
mp-677813,Rb4CuSi2O7,-0.590152650357142
mp-689393,Na2Cu(Si2O5)2,-0.8235579095740361
mp-720417,CuH10SO9,-1.100032558333334
mp-726261,CuC3N2O5,-0.65049002590909
mp-726266,CuPb4(SO7)2,-1.36719783690476
mp-727103,Ba2Cu(C3O8)2,-1.800262474399999
mp-752943,Li4Cu(PO4)2,-2.444268620841269
mp-753416,LiCuBO3,-2.046676940416665
mp-754020,LiCoCuO4,-1.25378697404762
mp-755351,Li2Fe3CuO8,-1.500324418333333
mp-757101,Li2Cu(Si2O5)2,-2.779587650686274
mp-758170,LiCuPO4,-2.158036865068026
mp-758486,Li2CuP2O7,-2.361965677579364
mp-758497,LiCuPO4,-2.159211605782312
mp-758797,LiCu(PO3)3,-2.353151497661565
mp-759981,NaCu(PO3)3,-2.366359254486277
mp-760512,LiCuCO3,-1.648187033888889
mp-761254,Li5CuP3O11,-2.505932711029762
mp-773088,V3Fe2CuO12,-1.914760766388889
mp-781314,LiCuCO3,1.221637445277777
mp-781753,Li3CuP2O7,-2.404669163406593
mp-807992,V3Fe2CuO12,-0.004938738333332001
mp-861850,Li3CuNi3O8,-1.320777778666666
mp-863429,CuH10SeO9,-1.194705018802083
mp-8851,BaCuP2O7,-2.6480144217532473
mp-752888,Li2CuSiO4,-2.314023163958333
mp-740737,CuH12(BrO6)2,-0.544214593333333
mp-752930,LiCu(PO3)2,-2.274923535261905
mp-775479,Li2Fe3CuO8,-1.540407883511903
mp-557970,SrCu(TeO3)2,-1.8293405805
mp-13589,CuB(CN)4,0.07622807137500101
mp-1215619,ZnCr4CuSe8,-0.804021726339285
mp-1221630,MnCuNiSn,-0.05120592573275701
mp-1221637,MnCoCuSn,0.04903823426724101
mp-1221688,MnFe4CuO8,-1.589032732709359
mp-1225020,FeCu(RhS2)4,-0.700144240714284
mp-1225080,FeCu(RhSe2)4,-0.632232289910713
mp-1226044,Co4CuNiS8,-0.716562197857142
mp-1226224,Cr4CdCuO8,-2.019009702857143
mp-1226247,Cr4GaCuS8,-0.986059919821427
mp-1226265,Cr4CoCuS8,-0.9159975492857131
mp-1226304,Cr4GaCuSe8,-0.802006105446427
mp-1226315,Cr4FeCuSe8,-0.709078585624999
mp-1226392,Cr2Cu(SeS)2,-0.8288936328124991
mp-1226405,Cr4CuNiSe8,-0.743853269196428
mp-1226682,CeInCuAg,-0.22634971958333103
mp-20809,Cr4InCuSe8,-0.7855761346726151
mp-6685,Cr4FeCuS8,-0.8867687128571411
mp-730273,ZnCuC8N5,1.596573434999999
mp-1006615,CrCuN6Cl5,1.273727056153848
mp-1110658,Rb2YCuF6,-3.144641709499999
mp-1110659,Rb2CuSbF6,-2.4788471875
mp-1110660,Rb2NdCuF6,-3.08967114525
mp-1110676,Rb2CuMoCl6,-1.5556305435
mp-1110685,Rb2YCuCl6,-2.1307066575
mp-1110686,Rb2CuSbCl6,-1.5882643994999999
mp-1110687,Rb2PrCuCl6,-2.107309043666666
mp-1110688,Rb2NdCuCl6,-2.11429895525
mp-1110689,Rb2CuMoBr6,-1.2492365395
mp-1110690,Rb2CuBiCl6,-1.6369621595
mp-1110718,Rb2TaCuI6,-0.8413938472333331
mp-1110719,Rb2CuSbBr6,-1.329701577499999
mp-1110720,Rb2PrCuBr6,-1.800356482666666
mp-1110721,Rb2NdCuBr6,-1.8045636302499992
mp-1110722,Rb2CuMoI6,-0.831397474499999
mp-1110723,Rb2CuBiBr6,-1.3756930845
mp-1110761,Rb2YCuI6,-1.3486702405
mp-1110762,Rb2CuSbI6,-0.9503694934999991
mp-1110763,Rb2PrCuI6,-1.354138955666666
mp-1110764,Rb2NdCuI6,-1.355390682249999
mp-1110765,Rb2CuBiI6,-0.9890770155
mp-1110839,K2CuSbF6,-2.46324798345
mp-1110840,K2PrCuF6,-3.045364464616666
mp-1110841,K2CuBiF6,-2.49143177645
mp-1110856,K2CuSbCl6,-1.337969083250001
mp-1110870,K2CuMoBr6,-1.21932678445
mp-1110871,K2CuBiCl6,-1.60153208845
mp-1110903,K2TaCuI6,-0.8036536641833331
mp-1110906,K2CuSbBr6,-1.292170469449999
mp-1110907,K2PrCuBr6,-1.759349270616666
mp-1110908,K2NdCuBr6,-1.764102558199999
mp-1110909,K2CuMoI6,-0.7947481334500001
mp-1110910,K2CuBiBr6,-1.336068324449999
mp-1110942,K2YCuI6,-1.30573541945
mp-1110943,K2CuSbI6,-0.908549277449999
mp-1110944,K2PrCuI6,-1.309019144616666
mp-1110945,K2NdCuI6,-1.310633624199999
mp-1110946,K2CuBiI6,-0.945617429449999
mp-1110977,Cs2YCuF6,-3.15294846552083
mp-1110978,Cs2CuBiF6,-2.4522597508750072
mp-1110992,Na2TlCuCl6,-1.331106336609196
mp-1110993,Na2TlCuBr6,-1.076208216609196
mp-1110994,Na2LuCuCl6,-1.781204823666668
mp-1110995,Na2LaCuCl6,-1.791900309499999
mp-1110996,Na2YCuF6,-2.9902990022500022
mp-1111031,Rb2NbCuF6,-2.5835610415
mp-1111034,Rb2CuAuF6,-2.125885313499999
mp-1111035,Rb2LuCuCl6,-2.137519841166666
mp-1111036,Rb2GaCuF6,-2.648850464249999
mp-1111042,Na2TmCuCl6,-1.782572154
mp-1111065,Na2ScCuF6,-2.978915552250001
mp-1111066,Na2CuMoF6,-2.3870390468750022
mp-1111083,Na2InCuF6,-2.413345171430557
mp-1111097,Li2CuSbF6,-2.174301420666666
mp-1111100,Li2InCuF6,-2.304409231333333
mp-1111113,Li2CuIrF6,-1.8714524266833332
mp-1111118,Na2InCuCl6,-1.296175764833327
mp-1111120,Li2CuSbCl6,-1.000031961083333
mp-1111123,Li2InCuCl6,-1.340914784333332
mp-1111132,Na2DyCuCl6,-1.7790154235000002
mp-1111135,Na2CuBiBr6,-1.142300283275862
mp-1111143,Li2CuMoF6,-2.223153679333334
mp-1111262,Li2ScCuCl6,-1.5749229983333302
mp-1111263,Li2MnCuF6,-2.44417678745977
mp-1111265,Na2TlCuF6,-2.190846248812511
mp-1111272,Na2CuSbF6,-2.299891334275862
mp-1111274,Na2CuPdF6,-2.076635056180551
mp-1111277,Na2GaCuF6,-2.530371012025862
mp-1111279,Na2CuBiF6,-2.269895509750001
mp-1111283,Na2CuAuF6,-1.971181321275861
mp-1111289,Na2CuAsF6,-2.155844369875
mp-1111310,Cs2TaCuF6,-2.786545787586649
mp-1111353,Li2ScCuF6,-2.8582985923888797
mp-1111358,Li2GaCuF6,-2.395960645111111
mp-1111359,Li2CuAuF6,-1.849182262666666
mp-1111360,Li2CuAsF6,-2.034172969583332
mp-1111447,Cs2TmCuCl6,-2.02414600125
mp-1111449,Cs2SmCuCl6,-2.026102832499998
mp-1111461,Cs2CuSbCl6,-1.610273098931034
mp-1111470,Cs2PrCuCl6,-2.136898362097701
mp-1111471,Cs2CuBiCl6,-1.458815747999986
mp-1111482,Rb2TlCuCl6,-1.5492221238333341
mp-1111483,Rb2CuPdF6,-2.2264177105
mp-1111484,Rb2TlCuBr6,-1.305266993833333
mp-1111485,Na2TbCuCl6,-1.779138691000001
mp-1111488,Na2SmCuCl6,-1.898987165775862
mp-1111503,Na2InCuBr6,-1.178132886942528
mp-1111507,Na2EuCuCl6,-1.8193175667758612
mp-1111508,Na2ErCuCl6,-1.776939179083334
mp-1111509,Na2CeCuCl6,-1.760409293999998
mp-1111510,Na2CuBiCl6,-1.222679208666666
mp-1111511,Na2CuAuCl6,-1.193242452275862
mp-1111514,Na2YCuCl6,-1.771035509750007
mp-1111532,Na2ScCuCl6,-1.723878963999999
mp-1111536,Na2CuSbCl6,-1.152637600250001
mp-1111560,Li2CuNiF6,-2.247561114333334
mp-1111744,Na2YCuBr6,-1.580670454275861
mp-1111878,Cs2YCuBr6,-1.841111695931034
mp-1111879,Cs2CuSbBr6,-1.361279526931034
mp-1111885,Cs2NdCuBr6,-1.840502089681035
mp-1111900,Li2CrCuF6,-2.470096772666667
mp-1111939,K2CrCuF6,-2.7107377544499993
mp-1111940,K2GaCuF6,-2.6579901302
mp-1111969,K2TlCuCl6,-1.518696923783333
mp-1111972,K2CuAuCl6,-1.366836456449999
mp-1111984,K2EuCuCl6,-2.00735087195
mp-1111991,K2TbCuCl6,-1.9724441962499952
mp-1111994,K2DyCuCl6,-1.9749679387500012
mp-1112010,K2CuAuF6,-2.122428195449999
mp-1112034,K2YCuBr6,-1.7716877844499992
mp-1112048,K2CeCuI6,-1.302416412449999
mp-1112158,K2YCuCl6,-1.9743445044999932
mp-1112159,K2ScCuCl6,-1.903441415916661
mp-1112160,K2InCuBr6,-1.364505551116666
mp-1112163,K2GdCuCl6,-1.9584199982499961
mp-1112164,K2ErCuCl6,-1.962646889833334
mp-1112168,K2TlCuF6,-2.377329549783334
mp-1112215,K2TmCuCl6,-1.9673442948999962
mp-1112216,K2TlCuBr6,-1.269294586783333
mp-1112217,K2TaCuBr6,-1.2404970571833331
mp-1112218,K2SmCuCl6,-1.9575590557499971
mp-1112220,K2PrCuCl6,-1.938068595916667
mp-1112227,K2NdCuCl6,-1.9470927702499972
mp-1112229,K2LuCuCl6,-1.951118381316666
mp-1112230,K2LaCuCl6,-1.9788363322499998
mp-1112237,K2CeCuCl6,-1.9621458377500032
mp-1112242,K2YCuF6,-3.125481663449999
mp-1112244,K2TiCuF6,-2.889731656783333
mp-1112245,K2ScCuF6,-3.147014890949999
mp-1112246,K2NdCuF6,-3.063690165199999