material_id,formula,formation_energy_per_atom
mp-399,Te2Pt,-0.44249040333333206
mp-569581,Bi2Pt,-0.24849025958332902
mp-617,PtO2,-0.8708263916666651
mp-762,PtS2,-0.440054991874996
mp-11693,TePt,-0.40101709500000005
mp-1216236,VPt,-0.299605394999999
mp-1217413,TcPt,-0.077824940624999
mp-1219507,RePt,-0.001967701249995
mp-1219711,PtW,-0.054905329999996005
mp-1219734,PtRh,-0.010429924999996001
mp-1219908,PdPt,-0.04271062499999
mp-1220052,NiPt,-0.05509396999999901
mp-1221545,MnPt,-0.007661063965517001
mp-1223656,InPt,-0.36572020312500003
mp-1223665,IrPt,0.081434785000006
mp-1224766,Fe3Pt,0.036371405000001
mp-1225998,CoPt,-0.014444050000001001
mp-1226164,CrPt,-0.059656083333337
mp-1226450,Co3Pt,0.06421203
mp-23290,PtCl2,-0.47506400999999804
mp-1179845,PtO6,-0.13999258357142902
mp-768247,PtO3,-0.6081255025000001
mp-18707,Mg3Pt,-0.5617630770833331
mp-1186364,PPt,-0.40254967367559
mp-7868,PtO2,-0.8706233616666661
mp-1008809,PtN2,0.682314279999999
mp-1009648,PtC,1.5707331862499991
mp-11807,LiPt,-0.6548987983333311
mp-1185153,KPt,0.25031946912499903
mp-1185568,Mg149Pt,-0.006860485099999001
mp-1186175,NaPt,-0.24226797913793502
mp-1187458,TcPt,-0.09513529062499501
mp-1217428,Tc3Pt,-0.115081826249998
mp-1219500,RePt,-0.021544471249995003
mp-1219540,Re3Pt,-0.07330784687498901
mp-1221433,MoPt,-0.19987173500000202
mp-1226436,Co3Pt,0.04474771
mp-11553,TlPt,0.462474104861115
mp-2170,Li2Pt,-0.5886431711111111
mp-1018947,PtN2,0.6879641883333291
mp-1066078,BiPt,-0.294186384999996
mp-1066274,PtPb,-0.311851534999995
mp-1096829,BPt,0.039761654583333
mp-1183654,Cd3Pt,-0.15544002374999802
mp-1183705,Cr3Pt,0.22371155249999902
mp-1184308,Ga3Pt,-0.14878849437499903
mp-1184728,Ge3Pt,0.06235822124999701
mp-1185931,Mn3Pt,-0.162352678448275
mp-1186846,PtPb3,-0.06448614916666101
mp-1187059,Th3Pt,-0.302361967083328
mp-1188043,Zr3Pt,-0.48085952625000405
mp-13173,PtN,1.1533784550000021
mp-13548,Cs2Pt,-0.06368258
mp-19856,SnPt,-0.6177887774999961
mp-21380,PtPb,-0.039621427499994005
mp-2192,BPt,0.056263516249998
mp-22923,BiPt,-0.050024732499998004
mp-2845,SbPt,-0.44591140249999406
mp-31498,BaPt,-0.7489619924999991
mp-569265,Mg3Pt,-0.542864672083334
mp-571512,TePt,-0.26272791250000405
mp-862589,Re3Pt,-0.261059043124994
mp-865193,Co3Pt,-0.075736843749999
mp-867281,Tc3Pt,-0.310300714999996
mp-972763,Si3Pt,-0.051141577499997
mp-974049,Hf3Pt,-0.443634357499995
mp-977343,H3Pt,0.5019533300000011
mp-983445,Na3Pt,-0.07106996159482801
mp-1025551,GaPt,-0.6299879474999991
mp-12651,MgPt,-0.696493014999997
mp-684670,PtCl2,-0.18158296277777203
mp-1095224,PtO2,-0.841492194999999
mp-1095618,PtN2,0.214806325833331
mp-22864,Bi2Pt,-0.276960482499996
mp-2513,As2Pt,-0.607378169999999
mp-562,Sb2Pt,-0.541804146666663
mp-680506,PtCl4,-0.11397649258333001
mp-730,P2Pt,-0.789592848650793
mp-1018164,PtC,0.9112256662500001
mp-1072399,Be5Pt,-0.461596844166666
mp-13174,PtN,0.9567553125000001
mp-1002228,PtC,2.009089186250001
mp-1064000,Cs3Pt,0.188860439051723
mp-1067281,Rb3Pt,0.23906231437500003
mp-11455,HfPt,-1.087989965000005
mp-11552,TiPt,-0.868008845833337
mp-11554,ZrPt,-1.057382579999995
mp-1184210,Ga3Pt,-0.152738735624999
mp-1184551,Hg3Pt,0.18148772375000902
mp-1184553,Hf3Pt,-0.462209752500001
mp-1184825,In3Pt,-0.11960783916666501
mp-1186016,Mo3Pt,-0.10512413749999801
mp-1187219,Ta3Pt,-0.225953688
mp-12798,Ni3Pt,-0.069345527499999
mp-1649,Fe3Pt,-0.072918827499998
mp-30785,Mn3Pt,0.064021566551723
mp-636331,V3Pt,-0.23656276250000002
mp-7425,TbPt,-1.321867386249997
mp-892,ScPt,-1.227382937499999
mp-971951,Zr3Pt,-0.49139677500000506
mp-974370,PtRh3,-0.0227897625
mp-1079689,Tl3Pt,0.118885910138892
mp-1232,Mo3Pt,-0.102764291249997
mp-2211,V3Pt,-0.427115099999999
mp-2339,Ti3Pt,-0.684364118749999
mp-2663,Nb3Pt,-0.43295823249999904
mp-446,Cr3Pt,0.10911935874999901
mp-20119,PtO2,-0.132933501666666
mp-1018165,PtC,1.4822802012499992
mp-1062676,K2Pt,-0.030913012499998
mp-11540,PtO,0.2059892925
mp-1184218,Ga3Pt,-0.164990773125
mp-1187204,Ta3Pt,-0.225049778000002
mp-1187724,U3Pt,-0.22941976875000503
mp-13175,PtN,1.2044023075
mp-19962,Sn2Pt,-0.45046744666666405
mp-22095,Ga2Pt,-0.581049438333334
mp-22682,In2Pt,-0.6045200566666671
mp-867227,Li3Pt,-0.433075907499999
mp-1191960,Zr2Pt,-0.8107161700000011
mp-1207604,Yb4Pt,-0.105736860999996
mp-1207762,Y4Pt,-0.080536718833337
mp-1208017,Tm4Pt,-0.10413982766667101
mp-1208452,Tb4Pt,-0.0998136525
mp-1208740,Sr4Pt,-0.17083104372222202
mp-1208942,Sm4Pt,-0.023284970000000002
mp-1209426,Pr4Pt,-0.014313382333332
mp-1209997,Nd4Pt,-0.025295665999998003
mp-1210253,Na4Pt,0.22448009541379002
mp-1211180,Li4Pt,0.066144166333334
mp-1211592,La4Pt,-0.18251623633333303
mp-1212276,Ho4Pt,-0.10062785099999001
mp-1212888,Dy4Pt,-0.095903540499989
mp-1212906,Er4Pt,-0.09832343433333701
mp-1213212,Eu4Pt,-0.12495217200000401
mp-1213934,Ce4Pt,0.027892188999999002
mp-1214057,Ca4Pt,-0.17524968410000102
mp-1214403,Ba4Pt,-0.18803123499999902
mp-1147730,H4Pt,0.34034122466666705
mp-936,Hg4Pt,-0.123063639999998
mp-1221441,MoPt,-0.251631788750003
mp-542817,UPt,-0.8502938387500051
mp-8943,PtF4,-1.375093648
mp-1017531,VPt,-0.5500595449999991
mp-998949,TiPt,-1.003696203333333
mp-999376,NbPt,-0.6641852299999941
mp-999502,MoPt,-0.35810017000000005
mp-1285,PtO2,-0.9266031233333341
mp-1543,Ge2Pt,-0.33539509166666903
mp-567484,PtCl2,-0.42904594499999804
mp-570155,PtN2,0.25356685499999704
mp-568531,Bi2Pt,-0.28532103958333205
mp-669496,PtI4,-0.433000066749999
mp-1025409,TmPt,-1.4474608525000001
mp-1025431,SmPt,-1.192881412499998
mp-1025438,LuPt,-1.459789310833329
mp-1025444,ErPt,-1.431816634166665
mp-1025448,YPt,-1.3662163925
mp-1078557,PrPt,-1.103968859583334
mp-1078613,DyPt,-1.412515317500002
mp-1079180,HoPt,-1.422268254999991
mp-1079305,TbPt,-1.400026603749999
mp-1080485,NdPt,-1.141360196249998
mp-1102104,Ho2Pt,-1.070041939999995
mp-1102133,Tm2Pt,-1.102332915833334
mp-1102319,Lu2Pt,-1.12645964611111
mp-1102657,Y2Pt,-1.009406129166668
mp-1103421,Dy2Pt,-1.055507948333333
mp-1105479,Dy3Pt,-0.7920070031249931
mp-1106170,Gd3Pt,-0.6772916000000001
mp-11428,GdPt,-1.229529129999997
mp-11550,Sc2Pt,-0.9765987383333321
mp-11551,Tb2Pt,-1.039773410833333
mp-1188476,Ho3Pt,-0.8041345443749961
mp-1189442,Tm3Pt,-0.823955138750001
mp-1189834,Lu3Pt,-0.8407180162499941
mp-1189835,Er3Pt,-0.8058479374999971
mp-1208453,Tb3Pt,-0.786432913749997
mp-30610,Er2Pt,-1.080020761388889
mp-505319,PtF6,-1.151997960357141
mp-542640,GePt,-0.48595396374999905
mp-570180,YbPt,-1.464130011249999
mp-696,SiPt,-0.6970136237499991
mp-7343,Y3Pt,-0.764587470000002
mp-768242,PtO3,-0.594864511874999
mp-1002104,LaPt,-1.297595414999996
mp-1007691,HfPt,-1.260586500000002
mp-1065793,PuPt,-0.550982481874992
mp-1065995,ZrPt,-1.231538919999998
mp-1066577,NpPt,-1.019517436875006
mp-12607,PrPt,-1.102010378333334
mp-12754,ThPt,-1.330774292500002
mp-21245,CePt,-1.233589757499999
mp-569752,UPt,-0.8738249849999981
mp-570934,NdPt,-1.138051927500001
mp-1224761,Fe3Pt,0.009274535000001001
mp-20662,Sn4Pt,-0.22578368000000001
mp-1205321,PtS,-0.49855027515624706
mp-660594,PtF4,-1.340386011000001
mp-1173689,Na8PtO6,-1.3246188747356311
mp-1179984,PtBr3N2,0.9893475691666661
mp-1223078,La4PtO7,-3.352182622083333
mp-29157,Si3P2Pt,-0.45572319515873205
mp-582988,Bi12PtCl12,-0.921500333600001
mp-625112,H8PtO6,-1.139853136666666
mp-625113,H8PtO6,-1.1252732796666671
mp-625154,H8PtO6,-1.128265249999999
mp-625208,H8PtO6,-1.161056693666667
mp-626835,H8PtO6,-1.146977175
mp-728750,Na2PtO3,-1.475217878793103
mp-988256,FeSbPt,1.232628245
mp-1218928,SnSbPt,-0.47831894166666605
mp-1068239,SrGe3Pt,-0.6580639499999991
mp-1069604,CaSi3Pt,-0.6844212309999981
mp-1069809,BaSi3Pt,-0.553016668
mp-1207122,CeSi3Pt,-0.797867792
mp-1207214,SmSi3Pt,-0.729758972999999
mp-1227072,CaGa3Pt,-0.6547267465000011
mp-1227995,BaIn3Pt,-0.529825909999996
mp-19763,EuGe3Pt,-0.6486200240000021
mp-22346,BaGe3Pt,-0.632367121
mp-30433,BaSn3Pt,-0.681184819000002
mp-1025098,ThSiPt,-1.275570446666658
mp-1071675,GdSiPt,-1.154445103333331
mp-1072580,CeSiPt,-1.105894759999999
mp-1077109,SmSiPt,-1.122316878333335
mp-1077762,NdSiPt,-1.10431766583333
mp-1077797,LaGePt,-1.225666304999994
mp-1080386,PrSiPt,-1.109178295555552
mp-1206485,LaSiPt,-1.265966023333329
mp-20732,EuAsPt,-1.081193804166667
mp-28340,CaAsPt,-1.151342647499998
mp-734295,BaPtO7,-0.629108950555555
mp-1219019,SmGa3Pt,-0.7160804474999971
mp-1219973,PrGa3Pt,-0.723026000833338
mp-1220160,NdGa3Pt,-0.724150048000004
mp-1222794,LaGa3Pt,-0.748512737500001
mp-1226576,CeGa3Pt,-0.684243602499999
mp-1079869,K2PtS6,-0.318588307757925
mp-1178176,HgPtO2,-0.674523258125001
mp-1180241,Na2PtO6,-0.738640785862068
mp-1180661,Li2PtO6,-0.7856675018518521
mp-1192941,Nb8PtSe20,-0.8733681376293131
mp-1211074,LiPtO2,-1.118641589166666
mp-1214989,Ba3PtF12,-2.505721788749999
mp-1216805,USiPt,-0.6699252666666641
mp-1220139,NdGePt,-1.008328710833331
mp-1222889,LaSbPt,-0.724120153333333
mp-14474,Ta2PtSe7,-0.949753994607291
mp-675073,Na4PtO4,-1.358433314501915
mp-760492,Na4PtO4,-1.414084631724137
mp-1247533,Pt(CN)2,0.43661516800000305
mp-1078074,UGa5Pt,-0.442281116785715
mp-1103614,Ce2In8Pt,-0.428068596666663
mp-1217070,Ti2RePt,-0.8102393614583361
mp-1221683,Mn6PtRh,-0.14511189344827502
mp-1224523,GdPd2Pt,0.41529570000000005
mp-1224702,Fe2PtRh,-0.059551854999998
mp-1224791,GaNi2Pt,-0.377416704374998
mp-1226474,CePd2Pt,-0.915104599999999
mp-1539446,Cs2PtCl4,-1.534510231428571
mp-22934,K2PtCl4,-1.507347296785714
mp-27243,K2PtBr4,-1.435937949214286
mp-1078821,CsK2Pt,0.122598041829739
mp-1079567,K2RbPt,0.172773610750001
mp-642821,K3H5Pt,-0.441017609444443
mp-642845,Rb3H5Pt,-0.420547780416667
mp-643005,Cs3H5Pt,-0.42573272263889006
mp-1105981,Pt(NCl)2,1.395515958833331
mp-1208181,Tl2PtI6,-0.6365736812962931
mp-28247,K2PtI6,-1.005412828277777
mp-1281202,NiPtO2,-0.9418926068749991
mp-1283971,CoPtO2,-0.9772483000000001
mp-1029347,KPtN,-0.210758542499997
mp-1104401,Pt(NCl2)2,0.8865863276190481
mp-13986,Li2PtF6,-2.327044650370371
mp-642735,Rb2H4Pt,-0.48832260857143006
mp-643010,Cs2H4Pt,-0.48047235857142806
mp-680530,BiPtPb3,-0.16548661287500802
mp-728614,Pt(I2O)2,0.048206044285714005
mp-974713,K2H4Pt,-0.49014035392856903
mp-1068685,U2PtC2,-0.5339339699999981
mp-1078720,Pt(NCl)4,1.490452057037032
mp-1209519,Pt(IN)2,1.078187655499999
mp-1223664,K2H4Pt,-0.48953468892856905
mp-1247376,Sr2PtN2,-0.697632822500003
mp-2661453,Li2H2Pt,-0.523154923333332
mp-697096,Na2H4Pt,-0.452144137857142
mp-1079331,Pt(NCl)2,1.402344201333332
mp-1179836,Pt(NCl)2,0.9191770143333311
mp-1179922,Pt(NO2)2,0.108636022142857
mp-1189929,Li2PtF6,-2.326032550925924
mp-1197023,Pt(SO4)2,-1.40323690090909
mp-1207656,YPtF7,-2.805092973611112
mp-1208369,TbPtF7,-2.818473307499999
mp-1211006,LuPtF7,-2.818214611296295
mp-17160,DyPtF7,-2.817237958055554
mp-17446,PrPtF7,-2.9053396454629583
mp-17500,GdPtF7,-2.891240942222216
mp-17569,SmPtF7,-2.914746472500001
mp-17651,HoPtF7,-2.815040818611111
mp-18341,ErPtF7,-2.816598800925924
mp-28721,Pt(SCl4)2,-0.37016734187499906
mp-29282,P2PtO7,-2.080259031928571
mp-734425,Pt(SN)4,0.37690908506944204
mp-8982,CaSiPt,-1.061573698333338
mp-1224838,Ga4Ni3Pt,-0.45760726500000004
mp-623035,FeSbPt,0.155069995833333
mp-1079006,Pt(NO3)2,-0.507155214444444
mp-1079194,K2PtO6,-0.696370803833333
mp-1080119,K2PtO6,-0.9467519938333321
mp-1095099,LiPtF6,-1.836476935833332
mp-1188549,Ho7PtI12,-1.497866211249993
mp-1205326,Tb7PtI12,-1.525778407333335
mp-556492,CoPtF6,-1.9411580149999992
mp-557668,MnPtF6,-2.1978250534913792
mp-558838,NiPtF6,-1.9194652237499992
mp-5858,CdPtF6,-2.003090078749999
mp-8255,CaPtF6,-2.5396984625
mp-8256,ZnPtF6,-2.033013432499999
mp-8547,PdPtF6,-1.4742813174999991
mp-8610,Li8PtO6,-1.913959471111112
mp-1202899,Pt(NO)6,0.9303793963461541
mp-38017,Na2PtO3,-1.353441330459769
mp-557450,Na2PtO3,-1.491386842126436
mp-725591,Pt(NCl2)2,0.46497219547619
mp-730040,CaPtO6,-0.8959766387500001
mp-1192379,Na2PtF6,-2.273279053703704
mp-1217257,TePtSe,-0.43264675968749505
mp-1219720,PtSeS,-0.43115158395833403
mp-1225146,FeSnPt,-0.096673095833331
mp-1180647,Li2PtO6,-0.760860342962962
mp-1205984,Na2PtO6,-0.7203100158620681
mp-1365085,CaPtO6,-0.906242715624999
mp-10919,Rb2PtC2,-0.061142019000000006
mp-1227322,Bi2PdPt,-0.304879254999995
mp-3821,K2PtF6,-2.429395779388886
mp-4366,Na2PtC2,-0.08099178796551801
mp-505825,Cs2PtC2,-0.05227855586207
mp-8191,Cs2PtF6,-2.358812694444446
mp-8192,Rb2PtF6,-2.440364056111109
mp-976876,K2PtC2,-0.183952175499999
mp-1101675,NiPtO2,-0.946948687499999
mp-1178276,GaPtO2,-1.5362787543749992
mp-1246964,PtCN2,0.542402498125
mp-1277413,CoPtO2,-0.9864910918750001
mp-19210,CoPtO2,-1.03533258
mp-20458,PtPbF6,-1.942023894999998
mp-754538,HgPtO2,-0.6799591756250011
mp-755584,CrPtO2,-1.654502145625
mp-867719,FePtO2,-1.1735585437499991
mp-4598,Sr4PtO6,-2.623776220454545
mp-8568,Ca4PtO6,-2.711582475909091
mp-8727,Ba4PtO6,-2.467705925000003
mp-1018902,PrSbPt,-1.102482508888886
mp-1245906,NaPtN,0.09119253895833401
mp-15839,NdSbPt,-1.108964282499999
mp-10193,LuPPt,-1.454869114880954
mp-10738,SmPPt,-1.341192546547616
mp-1206734,LiInPt,-0.5995654477777721
mp-1215949,YGePt,-1.080255074999999
mp-1217967,SrPPt,-1.223448895992064
mp-1225129,EuPPt,-1.174433758214284
mp-1225431,Eu2As3Pt,-0.8805135820833361
mp-1227038,CaPPt,-1.26039131265873
mp-1245578,LiPtN,-0.24640371388888102
mp-16304,YPPt,-1.515127039325397
mp-16326,DyPPt,-1.5179935476587332
mp-16340,GdPPt,-1.351738858214286
mp-7168,TbPPt,-1.526961322658735
mp-7169,TmPPt,-1.487898745992059
mp-8605,SrSbPt,-0.9505581366666671
mp-8606,BaSbPt,-0.940368766666667
mp-9828,YbPPt,-1.481345977658729
mp-1078378,YbInPt,-1.142342402777779
mp-1078450,CeCdPt,-0.763139205555553
mp-1078582,UInPt,-0.447472579999997
mp-1078760,DySnPt,-1.085697334444439
mp-1079168,ThGaPt,-1.06137717138889
mp-1079727,LuSnPt,-1.176926461111116
mp-1079739,GdSnPt,-1.080331086111114
mp-1079790,TbSnPt,-1.087910731666666
mp-1079826,ErSnPt,-1.087031060555558
mp-1080077,UGaPt,-0.636939976944442
mp-1080495,ZrGaPt,-0.9622780724999961
mp-1080562,USnPt,-0.492665136111107
mp-1080806,TmSnPt,-1.081900579444446
mp-1084775,ScSnPt,-0.9951593238888911
mp-11091,NdMgPt,-0.8851744997222121
mp-1205985,Zr6Te2Pt,-0.821677993333332
mp-1206016,PrInPt,-0.9285065305555551
mp-12972,Zr6Sb2Pt,-0.8231638077777771
mp-13250,LaSnPt,-1.173140057222219
mp-16644,PrMgPt,-0.865556565555547
mp-16645,SmMgPt,-0.908393652222216
mp-19740,YInPt,-1.133099115555555
mp-19934,CeMgPt,-0.8297022472222231
mp-20103,TmInPt,-1.139411601111116
mp-20390,PrSnPt,-1.025074514444445
mp-20451,LaInPt,-1.117896087222226
mp-21007,SmSnPt,-1.066925606666668
mp-21111,NdSnPt,-1.045247506388894
mp-21290,HoInPt,-0.986927420555555
mp-22028,GdMgPt,-0.931498114999996
mp-22384,DyInPt,-1.1438152494444451
mp-22763,CeSnPt,-0.9812249594444421
mp-22779,YbSnPt,-1.191797336111114
mp-30733,HoSnPt,-1.0838942077777771
mp-31297,ScInPt,-0.9033033505555571
mp-3526,ErInPt,-1.137952625555556
mp-567413,TbInPt,-1.144207848888887
mp-569848,LuInPt,-1.127843153333332
mp-582029,GdInPt,-0.7155571122222221
mp-640922,CeInPt,-0.916540587777777
mp-646733,SmInPt,-0.311907209444443
mp-672307,NdInPt,-0.9469256058333281
mp-18198,ScSnPt,-1.001755710555556
mp-571609,HfGaPt,-0.9653750486111051
mp-601253,ZrGaPt,-0.9753242363888891
mp-1226689,CeSbPt,-0.8005540803333131
mp-1095469,TmAsPt,-1.352284892976191
mp-1095550,HoAsPt,-1.3791135499999991
mp-1101973,YbAsPt,-1.341929043333337
mp-1102150,LuAsPt,-1.332834067817453
mp-1102478,ErAsPt,-1.363676886111108
mp-1103143,SmAsPt,-1.219547994166665
mp-1103232,DyAsPt,-1.394297350833331
mp-1178335,GaPtO2,-1.5332369231249992
mp-1207369,LiGaPt,-0.6374690202777771
mp-1214788,BaPtO3,-1.8069840201428562
mp-1245931,CoPtN2,0.231207176249999
mp-12481,LaPPt,-1.389336503214285
mp-14793,Mg2SiPt,-0.5998960062499991
mp-15695,YAsPt,-1.392671519166668
mp-22662,TiGaPt,-0.8136282252777791
mp-569151,MnGaPt,-0.454163451810345
mp-672290,EuPPt,-1.170775604880951
mp-8456,SrAsPt,-1.155768352499999
mp-1101912,BaSiPt,-0.9251635274999981
mp-1101950,SbPtSe,-0.48257633635416103
mp-1102668,CrSbPt,0.23792805097221903
mp-1102707,FeSbPt,-0.018259020833332
mp-1102850,SbPtS,-0.471114288854157
mp-1103258,EuSiPt,-1.003821104166668
mp-1103607,BiPtSe,-0.40129416802083
mp-1217437,TePtPb,-0.43007944999999304
mp-1218898,SnTePt,-0.5678468683333331
mp-1218926,SnPtSe,-0.639586363854164
mp-1218931,SnPtS,-0.6541440259374981
mp-1219487,SbTePt,-0.608115675555554
mp-1224373,GeTePt,-0.49359400333333203
mp-1227441,BiSbPt,-0.40098963333333404
mp-1228738,AsPtS,-0.471394943020825
mp-1228792,AsPPt,-0.681210908908729
mp-19798,EuGePt,-0.910838191666668
mp-21164,SrGePt,-0.9961831241666631
mp-21236,BaPPt,-1.079450174047616
mp-22151,BaGePt,-0.9001778516666641
mp-29638,BiTePt,-0.38061501083332805
mp-4478,CaSiPt,-1.077307350000002
mp-669307,FeSbPt,0.39087935166666604
mp-8458,BaAsPt,-0.9916395283333331
mp-971914,SrSiPt,-1.090511119166668
mp-1078605,Pt(NCl)2,0.798346439333332
mp-1079724,Pt(NCl)2,1.2724089073333311
mp-1105978,PtN3O4,0.507537701875
mp-1179874,Pt(NO3)2,0.055208354444444004
mp-1179950,PtN3O4,0.129105615
mp-1179964,Pt(NO3)2,-0.12670605777777802
mp-1181144,K2PtO6,-0.545107791611111
mp-1189258,Y6PtI10,-1.526444390000003
mp-1204078,PtN3O4,0.377268030416665
mp-1207330,Hg3PtF6,-1.165581162249992
mp-1212021,K2PtS6,-0.26379353998014604
mp-1212233,Mn3PtF6,-1.8234449673793098
mp-1212313,Li3PtF6,-1.956520077875001
mp-1214328,Co3PtF6,-1.129052406
mp-1245908,Ba4PtN4,-0.319250116666667
mp-1247311,Sr4PtN4,-0.42961506277778305
mp-1247325,Ca4PtN4,-0.622008555520834
mp-1411223,Pt(NCl)2,1.658632673333332
mp-28722,Pt(SCl3)2,-0.32005061965278003
mp-1220391,Nb6PdPt,-0.290104658749996
mp-1220392,Nb6GePt,-0.308643173124998
mp-541474,Pt(OF3)2,-1.15365942611111
mp-1209785,Pr3PtBr3,-1.710259575
mp-1211495,La3PtI3,-1.491130473571429
mp-653855,Pr3PtI3,-1.402891287857142
mp-1008680,TiGePt,-0.9806829755555521