material_id,formula,formation_energy_per_atom
mp-1222169,Mg2Al4Zn3,0.089799852222222
mp-29113,Ce3(Al2Si3)2,-0.46175634230768703
mp-571302,Pr3(Al2Si3)2,-0.407544520384616
mp-1221707,Mn9Al4V3,-0.21507697758620703
mp-1222031,Mn11Al4V,-0.12863828545258602
mp-1228117,Al4SiPd,-0.310677451041667
mp-567970,Hf3(Al2C3)2,-0.6322301508974351
mp-568991,Hf2Al4C5,-0.5457618844128801
mp-569831,Zr3(Al2C3)2,-0.588207202499999
mp-571419,Zr2Al4C5,-0.510639604488633
mp-1106244,Al4SiC4,-0.029639734304093
mp-1214816,Al4SiC4,-0.20606409152631502
mp-30914,UAl4Co,-0.338233413611119
mp-1189454,Mg2Al4Zn3,0.041705416666666
mp-1217721,Tb3(Al2Fe)2,-0.35337750111110905
mp-1225412,Dy3(Al2Fe)2,-0.359416154444442
mp-1225719,Er3(Al2Fe)2,-0.37762319777777503
mp-1247923,Al4B2O9,-3.002029025055556
mp-1248275,Al4(NiO4)3,-2.037278010263156
mp-1337719,La8Al4I7,-0.9066080146491231
mp-646295,La8Al4I7,-1.124764787807018
mp-988070,La8Al4I7,-0.379939885526316
mp-1193623,Al4As3O23,-1.077140784916667
mp-1215187,ZrUAl4,-0.30582720312501005
mp-1215433,YbLuAl4,-0.5586292569444441
mp-1215441,YbYAl4,-0.5718520891666681
mp-1215458,YbScAl4,-0.5463187099999991
mp-1215749,YUAl4,-0.310693054999999
mp-1215901,YErAl4,-0.576877250555556
mp-1217470,TbHoAl4,-0.585313989166666
mp-1217558,TbDyAl4,-0.588590385833335
mp-1218345,SrCaAl4,-0.30421225166666704
mp-1219010,SmUAl4,-0.306012313333335
mp-1219707,PrNdAl4,-0.547401993194443
mp-1219708,PrYAl4,-0.5471360069444431
mp-1219911,PrHoAl4,-0.542489169444444
mp-1219953,PrDyAl4,-0.548622054444445
mp-1220015,PrGdAl4,-0.543905016944442
mp-1220051,NdHoAl4,-0.557353330416667
mp-1222683,LaYAl4,-0.541201473333333
mp-1222685,LaYbAl4,-0.511851908333333
mp-1222762,LaPrAl4,-0.538230587777777
mp-1222785,LaNdAl4,-0.546373473749999
mp-1222788,LaLuAl4,-0.5080502519444411
mp-1222799,LaUAl4,-0.287825768333334
mp-1222875,LaErAl4,-0.5300651697222201
mp-1222920,LaCeAl4,-0.504900805
mp-1223023,LaEuAl4,-0.49610149666666803
mp-1223045,LaGdAl4,-0.540436121666668
mp-1224416,GdYAl4,-0.5738361633333321
mp-1224554,GdUAl4,-0.31885977333333404
mp-1224606,GdLuAl4,-0.499238749444444
mp-1224645,GdDyAl4,-0.576521792499998
mp-1225116,EuYAl4,-0.49351901083333405
mp-1225265,DyErAl4,-0.5792785030555551
mp-1225500,DyHoAl4,-0.583943896666667
mp-1225531,DyUAl4,-0.31970059583333404
mp-1226498,CePrAl4,-0.499035509444444
mp-1226499,CeLuAl4,-0.48702652361110904
mp-1226518,CeNdAl4,-0.509371502916666
mp-1226528,CeYAl4,-0.5124104766666661
mp-1226553,CeScAl4,-0.4638798175
mp-1226635,CeEuAl4,-0.483847925833333
mp-1227028,CaYbAl4,-0.43474854083333203
mp-1227030,CaSmAl4,-0.44683606999999803
mp-1227048,CaLaAl4,-0.42746901666666504
mp-1227226,CaErAl4,-0.43790456472222106
mp-1227230,CaDyAl4,-0.44790140916666604
mp-1228748,Al4CrS8,-1.111500045384614
mp-29225,Al4Cu2O7,-2.388443480384614
mp-571154,Sr11Al4Sn3,-0.46070700238683004
mp-642031,Sr11Al4In3,-0.256080985277777
mp-1215160,Al4Re12B,4.159949887647064
mp-1210303,Na3Al4O8,-2.512257606942528
mp-1194541,BaAl4O7,-3.4229562702083323
mp-1096832,Al4ZnS7,-1.154505132335067
mp-8258,BaAl4S7,-1.5920549239583321
mp-13703,Al4CO4,-2.594719617222223
mp-1199693,Al4SO18,-0.8504614070652171
mp-567067,Ba7Al4Ge9,-0.5177075062499971
mp-1228691,Al4GaSb5,-0.238974703000002
mp-1221843,Mn3(Al2Si)2,-0.291158298199233
mp-1228192,Al4Si2Mo3,-0.36278865631746204
mp-1228701,Al4Ge2W3,-0.09189542777777901
mp-12274,LaAl4Co,-0.516136435833331
mp-12896,NdAl4Co,-0.5162427445833321
mp-13504,CeAl4Co,-0.48929717666666606
mp-975726,PrAl4Co,-0.504929294444444
mp-23426,Al4Bi2O9,-2.857885393999998
mp-768382,La2Al4O9,-3.545410585666667
mp-771815,Eu2Al4O9,-3.2808343620000002
mp-1195461,Ba7Al4Sb9,-0.866964005000002
mp-1265399,Al4CO,-0.589852351666666
mp-1019532,BaAl4O7,-3.4240947214583333
mp-1019534,BaAl4O7,-3.447166220624999
mp-1214447,Ce3Al4Co3,-0.512596386999999
mp-1247233,Al4Te3N2,-0.763816415555557
mp-1095484,PrAl4Ni,-0.537792810277778
mp-1095605,GdAl4Ni,-0.556520615833334
mp-1102135,NdAl4Ni,-0.5454893404166661
mp-1190157,Ba3(AlPt)4,-0.8628637318181811
mp-11945,SmAl4Ni,-0.5561848233333321
mp-1204993,Mg19Al4Zn15,-0.059428426710526006
mp-1213792,CeAl4Pd,-0.6312978358333321
mp-16504,HoAl4Ni,-0.5457573399999981
mp-16509,LuAl4Ni,-0.56088443361111
mp-16518,TmAl4Ni,-0.535107126666667
mp-30750,CeAl4Ni,-0.535053100833332
mp-31180,DyAl4Ni,-0.55090449861111
mp-31183,ErAl4Ni,-0.5421772558333321
mp-3602,YAl4Ni,-0.5498965866666651
mp-4353,TbAl4Ni,-0.555881647777775
mp-556167,SrAl4O7,-3.3290988870833322
mp-1248289,Al4(BiS4)3,-0.623697197102525
mp-1264321,Al4(BiSe4)3,-0.53634152921875
mp-1191234,BaAl4Se7,-1.370573937617186
mp-1173027,Al4CO,-0.7048498133333321
mp-1247836,Al4CO,0.31932377833333303
mp-1253012,Al4(FeO4)3,-2.296935037105262
mp-1358877,Al4(CoO4)3,-2.137776631842104
mp-1361586,Al4(FeO4)3,-2.308164219473683
mp-15123,Th(AlC)4,-0.35121894555555505
mp-1224120,La12Mn3(AlSe7)4,-1.8493982997748541
mp-1227202,CaAl4(SiO3)8,-2.970146521081081
mp-1227806,Ca3Al4SiO12,-3.1311205
mp-1228280,Ca2Al4Si8O33,-2.30934233393617
mp-1233248,CaAl4Tl4O12,-2.269417090634922
mp-1233355,MgAl4(HO)12,-1.981873241724138
mp-1233465,MgAl4(HO)12,-1.8962320024137922
mp-1233915,MgAl4(HO)12,-1.9666926865517231
mp-1233946,MgAl4(HO)12,-1.953373604482758
mp-1233987,MgAl4Tl4O12,-2.196178915634923
mp-1234119,MgAl4(HO)12,-1.889054910689655
mp-1234204,MgAl4(HO)12,-1.954943913103448
mp-1234353,MgAl4(HO)12,-1.956044023793103
mp-1234382,MgAl4(HO)12,-1.88968741275862
mp-1234533,MgAl4(HO)12,-1.9927427362068961
mp-1234718,MgAl4(HO)12,-1.9454193800000001
mp-1234729,MgAl4(HO)12,-1.933338595517241
mp-1234785,MgAl4Tl4O12,-2.202714224682541
mp-1234888,MgAl4(HO)12,-1.98548949137931
mp-1235771,LiAl4Tl4O12,-2.09835979793651
mp-1235887,LiAl4Tl4O12,-2.074580466507937
mp-1236125,LiAl4Tl4O12,-2.082251833650796
mp-2229131,MgAl4Cr2O10,-2.964634825588236
mp-684265,Mg2Al4Si5O18,-3.307182992758622
mp-1202393,UAl4B3O14,-3.14721707306818
mp-1222874,LaPr3Al4O12,-3.668713242499999
mp-758693,Na4Al4H10O13,-2.121522440097331
mp-1020724,Na7Al4P9O32,-2.851050432239248
mp-1198125,Ca2Al4Si8O33,-2.292571766914893
mp-1200127,Ca2Al4Si8O33,-2.353888055212765
mp-1203564,Ca2Al4Si8O33,-2.30737669712766
mp-1228406,Al4Zn3Cr2O12,-2.7706511228571413
mp-1235175,LiAl4Zn2O8,-2.521405920888888
mp-1236205,LiAl4Zn2O8,-2.513869162888888
mp-1332806,Rb6Al4(Sb2O7)3,-1.994622844324323
mp-2226815,MgAl4(CuO4)2,-2.361936588333334
mp-2229469,MgTi2Al4O10,-3.202318994215685
mp-2229810,MgAl4Cr2O10,-2.8950232155882363
mp-1078224,CeAl4Si2Rh,-0.616502328749998
mp-1078427,CeAl4Si2Ir,-0.637123593749999
mp-1247620,Ca8Mn4Al4O21,-2.785365464776328
mp-1214513,Ba6Tb2Al4O15,-3.408807617530864
mp-1214515,Ba6Tm2Al4O15,-3.430331428703704
mp-1214519,Ba6Y2Al4O15,-3.404397987962963
mp-1214526,Ba6Nd2Al4O15,-3.360271372962962
mp-1214530,Ba6Lu2Al4O15,-3.436350634567901
mp-1214532,Ba6Sm2Al4O15,-3.38066064611111
mp-1214541,Ba6Dy2Al4O15,-3.41384142345679
mp-1214682,Ba6Gd2Al4O15,-3.39090210462963
mp-1078369,Gd2Al4CoGe2,-0.646919141111111
mp-1205834,Er2Al4NiGe2,-0.619012406666665
mp-1205974,Er2Al4CoGe2,-0.631741023333332
mp-570138,Tb2Al4NiGe2,-0.6391857048148141
mp-19348,Al4Co(BO5)2,-2.970759331078431
mp-1211503,La6Al4Fe9As,-0.32525553637499904
mp-1212040,La6Al4Fe9P,-0.31597406173214204
mp-1182478,Ca2Al4Si4O21,-2.469326496129032
mp-1203830,Ca2Al4Si4O17,-3.158445702962963
mp-1226977,CaAl4(SiO6)2,-3.0768171855263162
mp-706709,Al4P3(HO5)3,-2.797012645507142
mp-727941,KAl4(SiO6)2,-2.703804000118421
mp-1222844,LaPr3Al4O12,-3.670800806499999
mp-1219436,Sc2Al4(CO)3,-1.619907725833333
mp-1228698,Al4InAgS8,-1.001998377797617
mp-1228699,Al4InCuS8,-1.044429628095243
mp-1217099,Ti8Al4CN3,-1.117063881041666
mp-12017,CeAl4Ge2Au,-0.42149738999999903
mp-12018,NdAl4Ge2Au,-0.4444772496875
mp-12020,ErAl4Ge2Au,-0.415212449999999
mp-1235830,LiAl4Cd2O8,-2.531562624222222
mp-2227038,MgAl4(CuO4)2,-2.588786183666667
mp-672244,GdAl4Ge2Au,-0.273641834999999
mp-1227528,Be6Al4Si12O37,-3.173269721949152
mp-554364,MgBeAl4O8,-3.317258059285714
mp-1229278,Al4H50S7O52,-1.585473447920354
mp-1199608,Al4H12C15O31,-1.574861072016129
mp-1235214,LiAl4Cd2O8,-2.296249729555555
mp-2226796,MgAl4(CuO4)2,-1.894066729
mp-866690,La17Al4(Si3N11)3,-1.5597999373015892
mp-1212042,Ta12Al4CoC,4.023867615944445
mp-1222974,LaAl4Cu2Si,-0.43660820187499805
mp-1226681,CeAl4Cu2Si,-0.33491240135417405
mp-1199096,Ca3Al4CoO10,-3.1994160720833342
mp-557955,Ca3Al4ZnO10,-3.261105067916666
mp-10990,Al4CN3O,-0.820619713333334
mp-1219897,Pr5Al4(AgGe2)2,-0.5579780694444431
mp-1228068,Ba6Dy2Al4O15,-3.380322054012345
mp-2224242,MgTi2Al4O10,-3.175195486568628
mp-2224718,MgAl4Cr2O10,-2.9291115014705893
mp-1182907,Ca3Al4CoO10,-3.031123903749999
mp-1235144,LiAl4Cd2O8,-2.506299508888888
mp-1235363,LiAl4Zn2O8,-2.540515866222222
mp-1236099,LiAl4Zn2O8,-2.5275796668888892
mp-2228117,MgAl4(CuO4)2,-2.5650826256666672
mp-1020715,Sr6Y2Al4O15,-3.447766316481481
mp-1228237,Ca2Al4Si8O31,-2.397745811444444
mp-1228721,Al4InAgSe8,-0.8813140376785701
mp-1228728,Al4InAgTe8,-0.496294700607153
mp-1358157,Ba3Al4(Sb2O7)3,-2.335284351029411
mp-2228636,MgAl4(CuO4)2,-2.511744939666667
mp-2232986,MgAl4(CuO4)2,-2.557471243
mp-1219063,SmGd3Al4O12,-3.69164070025
mp-1220286,Nd3GdAl4O12,-3.672693714124999
mp-1222186,Mg8Al4Cu2Si7,-0.010087919047619002
mp-1233153,MgAl4Tl4O12,-2.144884978968254
mp-1233311,MgAl4Tl4O12,-2.149820905634922
mp-1233423,CaAl4Tl4O12,-2.111129623015875
mp-1235394,LiAl4Tl4O12,-2.068609981746033
mp-1197460,Al4Fe(SiO6)2,-2.9802000421052632
mp-1208226,Th2Al4Si2Au3,-0.674321373636362
mp-1204107,Al4Fe2Si5O18,-3.104646853103449
mp-19477,Mn2Al4Si5O18,-3.178988181926279
mp-6174,Mg2Al4Si5O18,-3.330954054137932
mp-1194616,Ca2Al4(Si2O7)3,-3.174699068030303
mp-556496,Sr10Al4Si6O,-0.6413619607142851
mp-2228730,MgAl4(CuO4)2,-2.446596385
mp-2229104,MgTi2Al4O10,-3.22550789127451
mp-2229744,MgTi2Al4O10,-3.195955519509805
mp-1196877,BaAl4(SbO6)2,-2.935126067631578
mp-1226904,CaAl4Si2O11,-3.3277072958333322
mp-1228466,Ba6Nd2Al4O15,-3.332106919999999
mp-1044922,Al4V13Si2(SbO14)2,-2.460901698163265
mp-1227133,CaMg2Al4SiO12,-3.1269903135
mp-1248247,Ca2Al4Si8H14O31,-2.108755661059321
mp-1249333,Mg5Al4Fe(SiO4)6,-2.9944558516249993
mp-1250398,Cs2CaAl4(SiO4)4,-3.200582824665815
mp-2713874,Na3Al4P3(SO8)3,-2.63995609821351
mp-2714293,NaAl4PS5O24,-2.440647285433967
mp-2714362,Na2Al4SiS5O24,-2.4394945918590363
mp-2715004,Na5Al4P5SO24,-2.801360742246432
mp-2715583,Na7Al4SiP5O24,-2.873455969256978
mp-2716138,Na6Al4Si3(SO8)3,-2.630542719186063
mp-42298,Na6Al4Fe(Si4O13)2,-3.048477230850574
mp-677067,Ca3Al4Si8(ClO12)2,-3.2017045046341472
mp-677292,Cs2CaAl4(SiO4)4,-3.1861268565176672
mp-690271,Ca2Al4Si4H18O25,-1.9613579120283022
mp-691076,Ba2Al4Si6H14O27,-1.887409925896226
mp-694907,Mg5Al4Fe(SiO4)6,-2.944836108875
mp-695074,KNa3Al4(SiO4)4,-3.143388482192426
mp-695251,Ca2Al4Si4H18O25,-1.996927320707548
mp-743762,Ca2Al4Si8H14O31,-2.073414296313559
mp-558240,K3Al4P2O8F9,-3.377624184270604
mp-1044109,Al4Si2Sn13(SbO14)2,-2.113796303367346
mp-1044158,Ti13Al4Si2(SbO14)2,-2.795471452312924
mp-1044336,Al4Cu13Si2(SbO14)2,-1.7743379716326522
mp-1044552,Al4Co13Si2(SbO14)2,-2.070311625510204
mp-1044564,Al4Si2Ni13(SbO14)2,-2.019428692448979
mp-1044864,Al4Cr13Si2(SbO14)2,-2.406264099591836
mp-1133344,Al4Fe13Si2(SbO14)2,-1.9918556795918372
mp-1212100,KAl4Fe3(HO6)2,-2.391785186352272
mp-1214742,Ca2Al4Si8(W3O8)3,-1.80576648893617
mp-39647,Na6Al4Fe(Si4O13)2,-3.038226919295018
mp-560917,Mn13Al4Si2(SbO14)2,-2.487269709451091
mp-1204071,Ba2Na2SrAl4F20,-3.888209056474436
mp-1221313,Na2SrAl4(B2O7)2,-3.07504025237701
mp-1197037,Ca2Al4Si4H10O21,-2.629439063109757
mp-540861,KNa3Al4(SiO4)4,-2.322139662013854
mp-559901,KNa3Al4(SiO4)4,-3.154789041299568
mp-1210822,Mg2Al4Fe(PO6)4,-2.380270808244898
mp-1256235,Al4V13Si2(SbO14)2,-2.465976968163264
mp-540725,CsBe4Al4(B3O7)4,-2.91210030468684
mp-1201890,Al4P5HN2O21,-2.155540043014069
mp-1205426,KNa3Al4(GeO4)4,-2.643202964156711
mp-1247835,Al4Si2H(O3F)3,-3.309963715592105
mp-573281,KNa3Al4(GeO4)4,-2.32486600397814
mp-1208675,SrAl4Si2N8O,-1.118593531562501
mp-556356,Na2SrAl4(SiO4)4,-3.295185041398465
mp-6875,BaNa2Al4(SiO4)4,-3.297985820102171
mp-677551,Na6MgAl4Si13O36,-3.118233958554598
mp-684864,Na6Al4Fe(Si4O13)2,-3.048146712628353
mp-39226,SrLa4TiAl4O15,-3.676868963133334
mp-1218507,SrCaAl4(SiO5)4,-2.691284062666667
mp-1218229,SrLa4TiAl4O15,-3.668365309533334
mp-1203266,SrLi2Al4(PO5)4,-2.7685582830721973
mp-1227818,BaSr11Al4(O4F)4,-3.419791733888888
mp-1228149,Ba3Sr9Al4(O4F)4,-3.420801768611111
mp-1221039,NaLiAl4(SiO6)2,-2.924096798985633
mp-24469,CaAl4Si2(HO6)2,-3.120014275357142
mp-686310,BaNa2Al4(SiO4)4,-3.295326754731801
mp-2712630,Na6Al4Zn4SiS11O48,-2.197393672217693
mp-2712721,Na6Ca4Al4SiS11O48,-2.430331127848323
mp-2712938,Na6Nb4Al4Si7S5O48,-2.7112719619249
mp-2713028,Na6Ta4Al4Si7S5O48,-2.77533497646544
mp-2713714,Na6Mg4Al4SiS11O48,-2.381292920190666
mp-2713753,Na6La4Al4Si3(S3O16)3,-2.594619294267242
mp-2713774,Na6Al4In4Si3(S3O16)3,-2.30167386728526
mp-2713796,Na6Al4Ga4Si3(S3O16)3,-2.322109011789765
mp-2713834,Na6Sc4Al4Si3(S3O16)3,-2.6017680321050802
mp-2713954,Na6Y4Al4Si3(S3O16)3,-2.605416215033007
mp-2714069,Na2Al4In4SiS11O48,-2.16658671221798
mp-2714147,Na2La4Al4SiS11O48,-2.482541337598933
mp-2714241,Na2Sc4Al4SiS11O48,-2.489502361027505
mp-2714255,Na2Al4Ga4SiS11O48,-2.193178223789409
mp-2714273,Na2Y4Al4SiS11O48,-2.496163671075123
mp-2714313,Na10Ta4Al4Si9(SO16)3,-2.854585184431108
mp-2714319,Na10Nb4Al4Si9(SO16)3,-2.791863692943929
mp-2714338,Na14Ta4Al4Si11SO48,-2.944795407513948
mp-2714559,Na14Nb4Al4Si11SO48,-2.8842479404082573
mp-2714685,Na10Mg4Al4Si3(S3O16)3,-2.440242572922562
mp-2714690,Na14Zr4Al4Si9(SO16)3,-2.865061138883866
mp-2714817,Na10Al4Zn4Si3(S3O16)3,-2.272088624161878
mp-2714883,Na10Ca4Al4Si3(S3O16)3,-2.45915505070034
mp-2714919,Na14Hf4Al4Si9(SO16)3,-2.899283424168418
mp-2715075,Na10Y4Al4Si5S7O48,-2.672663115807177
mp-2715096,Na10La4Al4Si5S7O48,-2.657160425636237
mp-2715107,Na14Ti4Al4Si9(SO16)3,-2.8255401936399642
mp-2715110,Na10Al4Ga4Si5S7O48,-2.42368801354222
mp-2715127,Na14Al4Si9Sn4(SO16)3,-2.600790531729395
mp-2715150,Na10Sc4Al4Si5S7O48,-2.675176968414015
mp-2715195,Na14Al4Si9Ge4(SO16)3,-2.592538277420452
mp-2715196,Na10Al4In4Si5S7O48,-2.3972457778584593
mp-2715548,Na14Al4In4Si7S5O48,-2.491243958009883
mp-2715604,Na14Y4Al4Si7S5O48,-2.7470494974814272
mp-2715613,Na14Al4Ga4Si7S5O48,-2.519087100245655
mp-2715631,Na14La4Al4Si7S5O48,-2.727384353904191
mp-2715763,Na14Sc4Al4Si7S5O48,-2.755270830489557
mp-2715840,Na6Zr4Al4Si5S7O48,-2.698887537172647
mp-2715846,Na10Ti4Al4Si7S5O48,-2.7383832992900823
mp-2715848,Na14Al4Zn4Si5S7O48,-2.385976755672485
mp-2715869,Na14Mg4Al4Si5S7O48,-2.5297264108757362
mp-2715873,Na14Ca4Al4Si5S7O48,-2.57676052920907
mp-2715922,Na10Al4Si7Ge4S5O48,-2.481790522751622
mp-2715944,Na6Al4Si5Ge4S7O48,-2.372229738929404
mp-2715970,Na10Hf4Al4Si7S5O48,-2.814858317452476
mp-2715986,Na6Al4Si5Sn4S7O48,-2.390676356001476
mp-2716016,Na6Hf4Al4Si5S7O48,-2.732570701406881
mp-2716022,Na10Al4Si7Sn4S5O48,-2.489025529888374
mp-2716099,Na10Zr4Al4Si7S5O48,-2.772753033948203
mp-2716108,Na6Ti4Al4Si5S7O48,-2.646089066857332
mp-2716133,Na2Ta4Al4Si5S7O48,-2.652231905827505
mp-2716187,Na2Nb4Al4Si5S7O48,-2.5871985989322672
mp-2716285,Na2Ti4Al4Si3(S3O16)3,-2.540064860860838
mp-2716388,Na2Al4Si3Ge4(S3O16)3,-2.226426057146552
mp-2716401,Na2Zr4Al4Si3(S3O16)3,-2.589157501860838
mp-2716437,Na2Hf4Al4Si3(S3O16)3,-2.6273673566703613
mp-2716439,Na2Al4Si3Sn4(S3O16)3,-2.244175647003695
mp-684921,Na3CaAl4Si8ClO24,-3.220490091076535
mp-685130,K2Al4Fe5Si5(HO6)4,-2.200435917261363
mp-693340,Al4Zn4P8H13N3O32,-2.226994237474889
mp-720205,Sr3Tm3Al4Si8N17O4,-1.445881561923077
mp-1209043,Sr2Al4Fe3P4(H2O13)2,-2.490435855199335
mp-1229285,Al4Fe2CuP4(H8O13)2,-1.9730309688409702
mp-709031,Al4P4H11C3NO18,-1.9397734985932051
mp-1222576,Mn3Al4FeP4(H4O7)4,-2.121431518792223
mp-42583,Na8BeAl4Si7(ClO12)2,-2.989009533609445
mp-43188,Na8BeAl4Si7(BrO12)2,-2.9735015216529233
mp-1199737,K6Al4Si6BH4ClO24,-2.865287828427535
mp-1182654,CaMnAl4SiP3(HO4)5,-1.9847256382317022
mp-1199709,CaMnAl4SiP3(HO4)5,-2.739440860803131
mp-698491,NaCa2Al4H8C4ClO20,-2.299679210409483
mp-1195057,K3Ba3Li2Al4B6O20F,-3.070058654446633
mp-1217081,Ti3Al5,-0.43391026125000004
mp-569049,Al5Mo,-0.274173570333332
mp-571053,Al5Mo,-0.266545990833332
mp-1190357,SmAl5,-0.28122977208333
mp-30337,Al5W,-0.18916691499999802
mp-568607,Al5Mo,-0.276001555833332
mp-1182893,Al5O8,-3.231499842307692
mp-1791,Al5Rh2,-0.8065616792857131
mp-196,Al5Co2,-0.42809385035714104
mp-261,Ba3Al5,-0.23020636562499902
mp-2631,Ba4Al5,-0.22180564833333202
mp-1228138,Al5O8,-3.153414269999999
mp-1228158,Al5S8,-1.109359496346152
mp-1228165,Al5Se8,-0.9269002710877421
mp-1192984,Al5Re24,-0.10605319224137401
mp-1217092,Ti3Al5,-0.45105708250000004
mp-1260352,Al5(NiO4)3,-2.3832602985
mp-1336703,Al5(BiSe4)3,-0.648936080062503
mp-1365819,Al5(BiS4)3,-0.7475597595416641
mp-1201074,Sm12Al5Fe14,0.139529915161291
mp-1211500,La10Al5I8,-1.074866180869566
mp-1214826,Al5Sb3O16,-2.557244235
mp-1248380,Al5(CuO4)3,-2.308133105999999
mp-1252778,Al5(CoO4)3,-2.531957335249997
mp-1356833,Al5(FeO4)3,-2.681699678749999
mp-1359741,Al5(FeO4)3,-2.71844733025
mp-1380716,Al5(NiO4)3,-2.418400280249999
mp-1228126,Al5CuW2,-0.169023851999998
mp-1228135,Al5CuMo2,-0.31610813135416405
mp-1025457,HfAl5Ni2,-0.58322172625
mp-30183,ZrAl5Ni2,-0.5923647562499791
mp-1210082,Nd6Al5Fe9,-0.21780659374999703
mp-1211603,La6Al5Fe9,-0.21958829074999903
mp-1211667,La6Mn9Al5,-0.16078657581896702
mp-569477,La10Al5Br4,-0.92067683131579
mp-1216384,Y9Al5S21,-1.9852556628303581
mp-1217749,Tb9Al5S21,-1.9971980268303562
mp-1217771,Tb9Al5Se21,-1.778903426549107
mp-1218873,Sm9Al5S21,-2.002013995973212
mp-1218878,Sm9Al5Se21,-1.797530740263392
mp-1220043,Pr9Al5S21,-2.002411640830358
mp-1220064,Pr9Al5Se21,-1.7979584907232131
mp-1220655,Nd9Al5Se21,-1.796041816794643
mp-1220699,Nd9Al5S21,-2.006405994044642
mp-1223486,La9Al5Se21,-1.9031481682946412
mp-1223592,La9Al5S21,-2.130723805642856
mp-1224705,Ho9Al5Se21,-1.7330032860446472
mp-1226050,Dy9Al5Se21,-1.7347847756875452
mp-1226139,Dy9Al5S21,-1.986824433973213
mp-1226348,Er9Al5S21,-1.965137701139888
mp-1225421,Dy2Al5Fe12,-0.21347701807017203
mp-1228304,Al5BiN4,-1.184488932499994
mp-1228559,Al5Ni41B12,-0.374853701379308
mp-570079,Al5C3N,-0.37439413611111005
mp-626161,Al5HO8,-3.197593442946428
mp-696529,Al5HO8,-2.967657847589286
mp-1220527,Nb4Al5Co3,-0.31362135499999905
mp-568809,Ba5Al5Pb,-0.330826060909091
mp-570677,Ba5Al5Sn,-0.34695077681817904
mp-1193237,BaAl5O9,-3.28386064
mp-1197186,Dy2Al5Fe12,-0.142709339122804
mp-1208710,Sr4Mg3Al5,-0.17463137208333301
mp-5496,Al5C3N,-0.36906000999999905
mp-30178,Mg2Al5Cu6,-0.235028325384621
mp-530399,LiAl5O8,-3.350604872559511
mp-1228170,Al5AgS8,-1.111908254583328
mp-35267,Al5CuS8,-1.167115974464285
mp-37405,Al5CuSe8,-0.9072566873214271
mp-1208102,Tm3Al5O12,-3.7212614525000003
mp-14132,Lu3Al5O12,-3.725327474875
mp-14133,Gd3Al5O12,-3.6496901
mp-14387,Tb3Al5O12,-3.690335603625
mp-14388,Ho3Al5O12,-3.703416676499999
mp-21757,Eu3Al5O12,-3.346018073500003
mp-3050,Y3Al5O12,-3.675374461249997
mp-3384,Er3Al5O12,-3.71221693225
mp-772195,Dy3Al5O12,-3.697212915499997
mp-780370,Sm3Al5O12,-3.6439628383749962
mp-780432,La3Al5O12,-3.614850969874999
mp-1245348,Al5WN7,-1.034791359182691
mp-3281,Al5BO9,-3.366610787277777
mp-1248520,Al5(BiS4)3,-0.8052837649166631
mp-1228156,Ba2(AlAg)5,-0.27523653402777504
mp-1228374,Al5FeNi,-0.381655068571428
mp-1215338,ZrAl5Cu7,-0.291508606923076
mp-1218875,Sr2(AlAg)5,-0.28379291708333204
mp-1219946,Pr2(AlCu)5,-0.390534210841875
mp-1225828,Eu2(AlAg)5,-0.32544317041666604
mp-1216255,Y2(AlNi)5,-0.626654433055553
mp-1225250,Er2(AlNi)5,-0.6325623705555541
mp-1195613,Sr2Al5Pd4,-0.739721863636362
mp-672344,CeAl5Pt3,-1.011326964444443
mp-1208532,Tb2Al5Ge2,-0.42522227722222705
mp-569398,La4Al5Br2,-0.9739260990909051
mp-1191305,UAl5Cu6,-0.236998558749999
mp-1080524,LaAl5Ni2,-0.6073673781249991
mp-11352,PrAl5Ni2,-0.588963146458332
mp-4817,CeAl5Ni2,-0.583317357499998
mp-1251086,Al5(FeO4)3,-2.69449454875
mp-1354911,Al5(CoO4)3,-2.530543446249999
mp-1362276,Al5(CuO4)3,-2.3329679725
mp-559916,Na17Al5O16,-2.266138905880217
mp-560591,NaTi2Al5O12,-3.363461813402314