material_id,formula,formation_energy_per_atom
mp-8708,Mg(AuF4)2,-2.026663795909089
mp-1179009,Tb5BiAu2,-0.683201919791665
mp-1179018,Tb5SbAu2,-0.7495631985416651
mp-1181047,Ho5SbAu2,-0.861938486458335
mp-1181438,Er5BiAu2,-0.7987123195833371
mp-1181498,Dy5SbAu2,-0.750510792916664
mp-1181507,Dy5BiAu2,-0.6822315885416651
mp-1188308,Er5SbAu2,-0.8602317895833451
mp-1188851,Ho5BiAu2,-0.806577254374999
mp-567961,Dy5BiAu2,-0.31086726354166405
mp-568686,Er5BiAu2,-0.42161161770833605
mp-569081,Tb5SbAu2,-0.41290854666666504
mp-570187,Tb5BiAu2,-0.322516244166665
mp-581281,Dy5SbAu2,-0.403222902291663
mp-27441,Au2Se4O11,-0.9884635352573481
mp-29194,Cs2Au2Se3,-0.7905192645982141
mp-554737,CsAu2F7,-1.6005589525000001
mp-557715,Cd(AuF6)2,-1.2680480613333311
mp-1079175,MgGaAu2,-0.422164844374999
mp-1080559,In(GaAu)2,-0.270310316999996
mp-569941,Ce3Sb3Au2,-0.863673129999997
mp-1208951,Sr(AuF6)2,-1.541649221666667
mp-558168,Ba(AuF6)2,-1.7874341114999992
mp-1006278,AcEuAu2,-0.779867236875
mp-1065288,GdInAu2,-0.747285812500003
mp-1183037,ZrZnAu2,-0.519295450000001
mp-1183071,AcCdAu2,-0.665137496874997
mp-1183167,AgPdAu2,-0.08966036625000101
mp-1183185,AcYbAu2,-0.8039132281249971
mp-1183474,CaAcAu2,-0.852907361874997
mp-1183564,CaNdAu2,-0.8077484893749981
mp-1183579,CaLaAu2,-0.8259485562500021
mp-1183634,CdAgAu2,-0.13724240375000102
mp-1183717,CeMgAu2,-0.648001093749997
mp-1183743,CeZnAu2,-0.532446484999998
mp-1183814,CePbAu2,-0.5589214249999951
mp-1183931,CsRbAu2,-0.279934621788791
mp-1184163,ErCdAu2,-0.663572987500001
mp-1184216,ErMgAu2,-0.782522481249998
mp-1184261,EuBiAu2,-0.556531636250003
mp-1184264,EuZnAu2,-0.49566628125000106
mp-1184283,EuGaAu2,-0.5185461006250001
mp-1184293,EuTlAu2,-0.504338152083336
mp-1184341,CeHgAu2,-0.509137670624999
mp-1184451,EuPbAu2,-0.5463673262500011
mp-1184513,GdMgAu2,0.528134741249999
mp-1184832,HoSnAu2,-0.684298809999996
mp-1184870,InAgAu2,-0.14207610375000002
mp-1184997,KRbAu2,-0.265591738687501
mp-1184999,LaMgAu2,-0.7297632149999991
mp-1185027,LaYbAu2,-0.873191277500005
mp-1185174,LaEuAu2,-0.7908660375000011
mp-1185323,LiHfAu2,-0.57096973916667
mp-1185375,LiLaAu2,-0.672893384583334
mp-1185397,LiNdAu2,-0.663592727708331
mp-1185407,LiPrAu2,-0.648446831249999
mp-1185435,LiYbAu2,-0.792985305416664
mp-1185824,MgAgAu2,-0.33610151666666704
mp-1185917,MgPaAu2,-0.42663353125000103
mp-1185960,MgScAu2,-0.743946162499998
mp-1186003,MnZnAu2,-0.32300060487068905
mp-1186157,NaEuAu2,-0.573689404094828
mp-1186306,NdGaAu2,-0.614731418749999
mp-1186308,NdHgAu2,-0.584546804999998
mp-1186394,PaBiAu2,-0.29294192625000104
mp-1186469,PrPbAu2,-0.6085797379166641
mp-1186639,PmPuAu2,-0.7441616190625021
mp-1186739,PrAgAu2,-0.5549010508333351
mp-1186795,PuPbAu2,-0.22374363968749403
mp-1186805,PuZnAu2,-0.22170171218748802
mp-1186806,PuAgAu2,0.064517496874998
mp-1186992,ScZnAu2,-0.6099848012500001
mp-1187150,SrAcAu2,-0.8110818843749921
mp-1187339,TbGaAu2,-0.657128586041666
mp-1187435,ThZnAu2,-0.550543714999999
mp-1187438,ThMgAu2,-0.6667310187499951
mp-1187467,ThBiAu2,-0.5439881949999991
mp-1187504,YbSmAu2,-0.9230753337499991
mp-1187607,TmLuAu2,-0.982737836666665
mp-1187627,YbNdAu2,-0.893820488125001
mp-1187656,YbCeAu2,-0.837001593750002
mp-1187938,YbAgAu2,-0.6674539099999991
mp-1188083,PuInAu2,-0.565058152187496
mp-20358,UInAu2,-0.407821551250002
mp-22493,YInAu2,-0.781283282499998
mp-30374,DyInAu2,-0.7004257995833301
mp-30376,ErInAu2,-0.781622655833331
mp-30388,HoInAu2,-0.696934070416661
mp-30393,LuInAu2,-0.760536086666668
mp-30395,ScInAu2,-0.687778471249998
mp-30419,USnAu2,-0.22900603124999502
mp-567210,TbInAu2,-0.7040339158333341
mp-568139,NdInAu2,-0.6829360585416671
mp-568537,YbInAu2,-0.7795896262500001
mp-568596,SmInAu2,-0.694418602916669
mp-568830,TmInAu2,-0.778851024999994
mp-570611,PrInAu2,-0.6701467695833301
mp-574025,HfInAu2,-0.46466748296874905
mp-581707,ZrInAu2,-0.531840506249999
mp-621348,TiInAu2,-0.28474494249999904
mp-622041,ThInAu2,-0.642016716666663
mp-636232,CeInAu2,-0.6333426766666691
mp-861599,PuSnAu2,-0.5613286821875001
mp-861617,LaHgAu2,-0.6220908443750021
mp-861664,LiTmAu2,-0.786110069166667
mp-861734,AcZnAu2,-0.544362240624998
mp-861881,LiGeAu2,-0.32062257458333404
mp-861885,LiDyAu2,-0.712369966249997
mp-861888,CeBiAu2,-0.580154864999999
mp-861900,LiGaAu2,-0.443066271666666
mp-861930,LiPdAu2,-0.354512704166666
mp-861932,LiZnAu2,-0.44415804291666505
mp-861960,CaInAu2,-0.6447403674999991
mp-861966,AcHgAu2,-0.657633783749999
mp-861973,PaCdAu2,-0.41065134750000004
mp-862599,LiErAu2,-0.7798675875000001
mp-862654,LaGaAu2,-0.6353538056250001
mp-862663,LaPbAu2,-0.660741091249999
mp-862722,LiHoAu2,-0.776720307916662
mp-862739,PuHgAu2,0.016827809270822003
mp-862743,LaCdAu2,-0.6595028887499991
mp-862761,PrBiAu2,-0.609635062916666
mp-862805,PrSnAu2,-0.6842041816666631
mp-862813,PaPbAu2,-0.33131227749999603
mp-862815,LiScAu2,-0.730636067916666
mp-862817,PaHgAu2,-0.353551554375002
mp-862819,PaInAu2,-0.48335766749999404
mp-862821,PaSnAu2,-0.42875350250000105
mp-862830,PaTlAu2,-0.312420432499997
mp-862833,PaZnAu2,-0.367683706250005
mp-862859,PuCdAu2,-0.5187628346875001
mp-862860,AcInAu2,-0.712694174374995
mp-862872,PmAgAu2,-0.6382697956249991
mp-862875,ThGaAu2,-0.600490434374995
mp-862879,PmBiAu2,-0.6515261356249981
mp-862882,CaPmAu2,-0.8781849018749951
mp-862891,PmCdAu2,-0.715495366874996
mp-862894,AcSbAu2,-0.719283556874998
mp-862905,PmGaAu2,-0.669522506874997
mp-862909,PmGeAu2,-0.5644572468750011
mp-862912,PmHgAu2,-0.654513036250001
mp-862917,PmInAu2,-0.785680726875
mp-862926,LiPmAu2,-0.729600761041666
mp-862933,PmMgAu2,-0.739687750625001
mp-862942,NaPmAu2,-0.664422989374998
mp-862951,PmPbAu2,-0.6766938668749981
mp-862953,PmSbAu2,-0.682360229375
mp-862956,PmSnAu2,-0.7305114218750001
mp-862965,PmTlAu2,-0.640160144374995
mp-862972,AcAgAu2,-0.602281895625004
mp-862974,PmZnAu2,-0.6304956056249931
mp-864599,TbSnAu2,-0.698085210416664
mp-864653,HoMgAu2,-0.774798287499995
mp-864667,NdTlAu2,-0.563963890208336
mp-864668,NdSnAu2,-0.693674060624997
mp-864716,PaGaAu2,-0.42421715749999506
mp-864803,NaAcAu2,-0.659439259374991
mp-864824,LiTbAu2,-0.7089497049999981
mp-864892,NdAgAu2,-0.568616172291667
mp-864920,MgZrAu2,-0.59993698875
mp-864922,MgZnAu2,-0.41613972874999605
mp-865013,EuAgAu2,-0.477775561666668
mp-865080,NaCeAu2,-0.497790127844825
mp-865082,NaCaAu2,-0.6131583099999991
mp-865098,NaLaAu2,-0.619128131594826
mp-865111,NaSmAu2,-0.589452589094826
mp-865113,NaNdAu2,-0.587236702219827
mp-865118,NaPrAu2,-0.5814311382614921
mp-865121,NaSrAu2,-0.5846316874999961
mp-865150,MgCdAu2,-0.36839062374999604
mp-865225,TmMgAu2,-0.7831241212500021
mp-865431,YbZnAu2,-0.698349319999998
mp-865514,YSnAu2,-0.681623648749997
mp-865522,YCdAu2,-0.6523260525000011
mp-865597,NdPbAu2,-0.613197059374996
mp-865710,LiSnAu2,-0.38896137208333104
mp-865730,TiZnAu2,-0.35065394333333405
mp-865740,YbCdAu2,-0.7324307362499951
mp-865748,YbGaAu2,-0.706596196249996
mp-865849,NaYbAu2,-0.657612963749997
mp-865861,LuMgAu2,-0.7843748879166651
mp-865862,CeAgAu2,-0.5002370729166671
mp-865887,TmCdAu2,-0.660687274999999
mp-865894,YbPmAu2,-0.9152536356249991
mp-865924,LiZrAu2,-0.589742580416668
mp-865940,LiThAu2,-0.6073597483333311
mp-865952,AcTlAu2,-0.6485188643749991
mp-865957,AcSnAu2,-0.7001559068750041
mp-865995,YbSnAu2,-0.691223276249999
mp-866010,CaCdAu2,-0.5571728124999971
mp-866016,AcBiAu2,-0.703839425624998
mp-866021,EuInAu2,-0.586572912916667
mp-866064,NdMgAu2,-0.7259730481249981
mp-866068,TbMgAu2,-0.768527832916666
mp-866117,HfZnAu2,-0.476041041249999
mp-866167,GdCdAu2,-0.686602019999995
mp-866171,YMgAu2,-0.762215591249999
mp-866174,ThSnAu2,-0.642506598749999
mp-866185,CeCdAu2,-0.570034574999992
mp-866287,DySnAu2,-0.6910928916666661
mp-866297,EuCdAu2,-0.560563128750003
mp-867118,LaSnAu2,-0.731593967499998
mp-867138,EuSnAu2,-0.6073447150000021
mp-867176,PrCdAu2,-0.627538850416668
mp-867244,LiGdAu2,-0.712535591666664
mp-867254,SmAgAu2,-0.583560251666669
mp-867287,LiInAu2,-0.45810238666666603
mp-867310,CeSnAu2,-0.656840798749994
mp-867353,ThCdAu2,-0.5885393400000011
mp-867361,CeTlAu2,-0.516936933333336
mp-867418,ThPbAu2,-0.541775084999997
mp-867422,AcPbAu2,-0.6827262418750021
mp-867762,DyMgAu2,-0.771047359166663
mp-867814,LaTlAu2,-0.612347314583337
mp-867822,LiYAu2,-0.7588378091666671
mp-867827,DyCdAu2,-0.660763370416662
mp-867836,LaZnAu2,-0.59507854875
mp-867860,SmZnAu2,-0.6066496987500001
mp-867867,SmMgAu2,-0.746028767499999
mp-867877,LiCdAu2,-0.39236425166666605
mp-867882,SmCdAu2,-0.645947641249996
mp-867903,LiLuAu2,-0.7881009908333281
mp-867908,LaBiAu2,-0.679363793750001
mp-867910,LaAgAu2,-0.5917919341666671
mp-867985,SmPbAu2,-0.610085793749997
mp-868003,LaInAu2,-0.7024288279166631
mp-972526,SmSnAu2,-0.6988432050000021
mp-972542,SmTlAu2,-0.5651232795833361
mp-972623,SmHgAu2,-0.589171169374998
mp-972626,SmGaAu2,-0.634731245624999
mp-972657,SmBiAu2,-0.60367778625
mp-972993,LiSmAu2,-0.6821153145833311
mp-973170,ScCdAu2,-0.641679473749995
mp-973285,HoLuAu2,-0.9720623679166631
mp-975893,PrMgAu2,-0.709627366666667
mp-976125,PrGaAu2,-0.597683749791666
mp-977113,MgPdAu2,-0.42962376374999905
mp-977359,CaSnAu2,-0.5924160312499981
mp-977376,TbCdAu2,-0.661868024166665
mp-977411,NpSnAu2,-0.5747862971874931
mp-977415,HoCdAu2,-0.659919823749997
mp-977418,LiMgAu2,-0.5792043545833331
mp-977422,NpCdAu2,-0.5178324696874981
mp-977444,PaAgAu2,-0.316874893749997
mp-977462,ZrCdAu2,-0.5182462562500021
mp-977562,NdCdAu2,-0.6396255943750021
mp-977565,NdBiAu2,-0.611393799374999
mp-977576,NdZnAu2,-0.586275844374999
mp-977581,EuHgAu2,-0.5296377318750041
mp-979422,YGaAu2,-0.6459727768750001
mp-980053,YbPrAu2,-0.8702825391666661
mp-980054,YbPbAu2,-0.6021079262499991
mp-982974,LiBeAu2,-0.333415724583335
mp-983123,HfMgAu2,-0.5695663937499961
mp-28095,Au2Se2O7,-0.8670706163352271
mp-559824,Au2Se3O10,-0.906057643135418
mp-1228313,Ba4Si21Au2,-0.238834158888888
mp-1206192,Y7(TeAu)2,-0.823149239393936
mp-1246903,Sr3(AuN2)2,-0.313682216666655
mp-14761,TmAu2F9,-2.391115420208333
mp-14802,LuAu2F9,-2.385973198819444
mp-16160,Sm4Au2O9,-2.803641438500004
mp-21787,Eu4Au2O9,-2.308757797166669
mp-3374,Nd4Au2O9,-2.769899473833338
mp-623092,Gd4Au2O9,-2.803804601666671
mp-9160,La4Au2O9,-2.8411514525
mp-559422,Bi4Au2O9,-1.303107969833335
mp-1192981,Eu(In2Au)2,-0.40996482130952305
mp-1211806,LaP3Au2,-0.37259800440476104
mp-21523,La(In2Au)2,-0.45416815809523103
mp-21537,Ce(In2Au)2,-0.38171820273809304
mp-28788,Ba9(AuO6)2,-2.463638764021739
mp-570556,Sr(InAu)2,-0.536262627666666
mp-574176,Ba(InAu)2,-0.546454538166676
mp-607126,Nd(In2Au)2,-0.41168376595237904
mp-607514,Pr(In2Au)2,-0.417359220119046
mp-30108,P2PbAu2,-0.18049598619047602
mp-1105499,Lu5(TeAu)2,-0.9686148946296291
mp-35835,Ag(AuS)2,-0.060644610677087006
mp-1104130,Ba(P2Au)2,-0.473823812653054
mp-1093563,CsRbAu2,0.109304640711206
mp-1093571,CaAgAu2,0.685743333333327
mp-1093595,ScPbAu2,1.202159606249999
mp-1093620,BaNaAu2,0.443739142155172
mp-1093673,LiCaAu2,0.48731815333333306
mp-1093675,LiSiAu2,1.090372944166667
mp-1093689,YTlAu2,1.005389529166663
mp-1093693,HfTlAu2,1.576561831666659
mp-1093710,YPtAu2,1.442964794166627
mp-1093715,TiBeAu2,1.721783805416666
mp-1093716,YPdAu2,1.287930155416666
mp-1093729,HfPtAu2,2.051533872499988
mp-1093750,ScAgAu2,1.150943669583341
mp-1093757,ZrTiAu2,2.196377410119041
mp-1093765,HfAgAu2,1.683812753333327
mp-1093804,LiAgAu2,0.811455391666655
mp-1093848,SrLaAu2,1.019691898749999
mp-1093868,YPbAu2,1.164515772500003
mp-1093871,ZrZnAu2,1.486798052499999
mp-1093875,ZrAgAu2,1.607389147083338
mp-1093879,ScZnAu2,1.05868670375
mp-1093882,CaHgAu2,0.37082644874999404
mp-1095711,MgScAu2,1.1249954625
mp-1095752,CsKAu2,0.07546813245834001
mp-1095770,SrBiAu2,0.726285273562503
mp-1095778,SrPbAu2,0.737274906249999
mp-1095807,ScSnAu2,1.181413648749995
mp-1095852,HfSnAu2,1.725634576249994
mp-1095892,MgGaAu2,0.629159319375
mp-1095900,ZnAgAu2,0.9756050658333201
mp-1095907,HfCrAu2,2.130269599999998
mp-1095926,LaYAu2,1.449150453749999
mp-1095949,TiCdAu2,1.2709857376388811
mp-1095956,YAgAu2,1.124921120833335
mp-1095973,LiLaAu2,0.9708822004166661
mp-1095985,MgTiAu2,1.497566055416666
mp-1096022,LiTiAu2,1.261713875416671
mp-1096025,CaPdAu2,0.862955800714271
mp-1096061,CaBiAu2,0.7464659165624921
mp-1096109,MnCdAu2,0.935880939387949
mp-1096111,ScMnAu2,1.561430576767243
mp-989737,Ag,0.010381675000004
mp-10597,Ag,0.007668675000001001
mp-8566,Ag,0.0
mp-124,Ag,0.0021267149999990003
mp-2646971,Ag,0.034337163333333004
mp-1215724,ZnAg,-0.024742943508774002
mp-623782,EuAg,2.188915018749998
mp-568927,AgI,-0.362143248333332
mp-570301,AgBr,-0.587576648333332
mp-570687,AgCl,-0.5571698837499991
mp-33154,AgI2,-0.299594967222221
mp-684580,AgI,-0.46390137333333203
mp-1185756,Mg2Ag,-0.12714955388888802
mp-1248087,Si3Ag,0.44624430083333305
mp-11841,CeAg,-0.06319438083333001
mp-1229041,AgTe3,0.023143023125001
mp-1961,TiAg,0.10795178166666701
mp-1017985,TiAg,-0.054529908333332
mp-11239,ZrAg,-0.128847814999996
mp-13156,HfAg,-0.11359142749999701
mp-567809,AgI,-0.46134082333333204
mp-2803876,AgO,-0.442571765833331
mp-1100764,Ni3Ag,0.23321139333333202
mp-1183080,Ac3Ag,0.077761538124995
mp-1183245,AgGe3,0.28528358208333404
mp-1183256,AgPb3,0.085092758333338
mp-1184257,Ga3Ag,0.12897321625000102
mp-1184493,In3Ag,0.03548717923611
mp-1186034,Na3Ag,0.054058643749999004
mp-1186488,Pm3Ag,0.014181133541665001
mp-1187545,Tl3Ag,0.10945109083333901
mp-1187719,V3Ag,0.37245250083333303
mp-12665,Be12Ag,0.110922151410256
mp-13155,Hf2Ag,-0.11359852500000502
mp-2021192,Mg2Ag,-0.14287866833333301
mp-2221,Zr2Ag,-0.10917206500000001
mp-975647,Pr3Ag,0.023750533333334004
mp-976408,Li3Ag,-0.12103026124999901
mp-978524,Si3Ag,0.545992760833332
mp-978790,Sm3Ag,0.005057206250000001
mp-979115,Ti2Ag,-0.04510925277777501
mp-1079720,AgO,-0.400223648333332
mp-7715,AgF2,-1.277155026666665
mp-8200,AgP2,-0.038252180317459
mp-19974,In2Ag,-0.050005156666661006
mp-2233,Th2Ag,-0.06417755055554801
mp-571297,AgN3,0.644938685833334
mp-760385,In2Ag,0.045937750648154
mp-1018026,LiAg,-0.16617734083333402
mp-1214946,AgO2,-0.006271814722221001
mp-1065190,AgO,-0.43706012333333105
mp-1066856,AgO,-0.43385250083333204
mp-1185807,Mg5Ag,-0.04383075611111
mp-1224956,FeAg,0.41459252416666803
mp-1226726,CdAg,-0.033355972499997
mp-1229012,AgPd,-0.07259402249999801
mp-1229015,AgPt,-0.0792769675
mp-1229032,AgPt4,-0.024214919000002003
mp-18536,AgF3,-1.128947433749999
mp-1182980,AgI,0.355860671666667
mp-1096804,AgH,0.120898396666667
mp-1183141,AgC,2.245809412916667
mp-22894,AgI,-0.46514602333333405
mp-580941,AgI,-0.46775989833333204
mp-1009767,AgN,1.544426379166667
mp-1183209,AgPt,-0.0823932825
mp-1183222,AgPd,-0.065638167499997
mp-1183229,AgIr,0.356743556666664
mp-1183233,AgRh,0.263305416666668
mp-1185591,Mg149Ag,0.001092287822222
mp-1187974,ZnAg,-0.010179864999999
mp-1215497,Zn3Ag,-0.019562567500001002
mp-1226933,Cd3Ag,-0.020846063749999002
mp-1185801,Mg5Ag,-0.04621667611111
mp-12062,AgB2,0.523821864999999
mp-1206995,K2Ag,0.18549979391666402
mp-1093999,Zn2Ag,-0.026481081666669
mp-1183112,Ac3Ag,0.084600328124999
mp-1183248,AgSn3,0.11149111750000101
mp-1183754,Ce3Ag,0.09821592583333501
mp-1184301,Ga3Ag,0.07367506697916801
mp-1184517,In3Ag,0.047215757986109004
mp-1185588,Gd3Ag,0.002433807500004
mp-1186033,Na3Ag,0.0513113425
mp-1186499,Pm3Ag,0.017924119791665
mp-1186704,Pr3Ag,0.033149765833334004
mp-1187969,Zn3Ag,-0.009275133750000001
mp-864952,Mg3Ag,-0.093537232916665
mp-973965,Nd3Ag,0.005839113125002001
mp-977126,Li3Ag,-0.11667885499999901
mp-978254,La3Ag,-0.027517774999996
mp-978806,Si3Ag,0.569951859583333
mp-979714,Sm3Ag,0.005806582499999001
mp-985702,AgPb3,0.092907068333339
mp-999197,AgN,1.4292424741666672
mp-758523,AgHg,0.08343215041666201
mp-1195243,AgP15,0.002923476897322
mp-1008912,AgC,2.258682377916667
mp-1009766,AgN,1.549489649166666
mp-22925,AgI,-0.46535334333333106
mp-379,AgSe,-0.09097982345052101
mp-8222,AgO,-0.133878308333332
mp-866291,AgBr,-0.6291156683333321
mp-1009018,InAg,0.054609407500002004
mp-1060967,AgBr,-0.40747644333333205
mp-11237,ScAg,-0.26337324500000003
mp-11478,GaAg,0.073309513958331
mp-1183210,AgHg3,0.11296148708333201
mp-1183452,Ca3Ag,-0.037221020833332
mp-1184230,Fe3Ag,0.344622799583334
mp-1184295,Eu3Ag,-0.035898607500001005
mp-1184564,Hf3Ag,0.097794913749986
mp-1184993,La3Ag,-0.016328662499997003
mp-1187102,Sr3Ag,0.06410047605555301
mp-1187267,Tb3Ag,0.015671212083335002
mp-1187490,Tl3Ag,0.10743908333333901
mp-1187915,Yb3Ag,0.010579202499997001
mp-1236,NdAg,-0.279320871249996
mp-1428312,AgN,1.6518583891666672
mp-1912,ZnAg,-0.024371359999998003
mp-1948,LaAg,-0.277487774999997
mp-2167,DyAg,-0.32308649166666403
mp-2266,YbAg,-0.36856195500000005
mp-2268,TbAg,-0.30377725916666304
mp-22915,AgI,-0.075022638333332
mp-2426,LiAg,-0.18045210083333302
mp-2474,YAg,-0.3274124325
mp-2475,SmAg,-0.302441587499998
mp-2525,PrAg,-0.23179544166666402
mp-2621,ErAg,-0.341187935833332
mp-2642,CdAg,-0.0530409375
mp-2696,MgAg,-0.23041872333333302
mp-2756,CeAg,-0.045297385833331004
mp-2778,HoAg,-0.32771211833333
mp-2796,TmAg,-0.35540010249999904
mp-30353,AgPt3,0.030191862916659002
mp-30362,Zr3Ag,0.021902941250001
mp-542779,GdAg,-0.247884267499991
mp-621131,Ti3Ag,0.11080614458333501
mp-726265,AgCl,-0.43170986374999903
mp-758433,AgHg,0.085358954166665
mp-866199,AcAg,-0.27115698125000104
mp-971703,V3Ag,0.37058322333333205
mp-975051,Rb3Ag,0.138861561458333
mp-976592,K3Ag,0.11510153218749801
mp-1214896,AgO2,0.39129558944444404
mp-1008653,AgC,2.236464982916667
mp-1056955,AgN,1.419704264166666
mp-1184226,Ga3Ag,0.065323063229168
mp-1186017,Na3Ag,0.049963491250000006
mp-22919,AgI,-0.37274297833333203
mp-22922,AgCl,-0.568439933749999
mp-23231,AgBr,-0.6596210383333321
mp-7592,AgF,-1.122615552499999
mp-865875,Li3Ag,-0.12234537624999901
mp-1210281,Na4Ag,0.174469648413791
mp-603,Be2Ag,0.029720604444444004
mp-28246,AgTe3,-0.017118973749997
mp-1185802,Mg5Ag,-0.05872982777777701
mp-1226728,CdAg,-0.032564897499998004
mp-1424734,AgN,1.9196186741666672
mp-1183178,AgAs,0.22395200416666503
mp-1536202,AgCl,-0.568070003749999
mp-2034510,AgBr,-0.659350243333333
mp-2020519,ZnAg,-0.035582830555556
mp-2284,AgF2,-1.311622154166665
mp-11840,BaAg,-0.275995824583332
mp-30355,SrAg,-0.27184485375
mp-568629,YbAg,-0.32611327374999904
mp-568716,SrAg,-0.273446333999999
mp-568761,AgTe,-0.07075093374999801
mp-665747,EuAg,-0.30951002000000105
mp-1185748,Mg2Ag,-0.12617058888888702
mp-1185754,Mg2Ag,-0.138513600555554
mp-538,CaAg,-0.306086769999998
mp-570858,AgCl,-0.539895231249999
mp-1091417,AgN,1.520129764166666
mp-1214982,AgC6,1.388995832619043
mp-1215437,ZnAg,0.012576820000001002
mp-1226716,CdAg,-0.023191427499998002
mp-499,AgO,-0.439935543333332
mp-2247,AgN3,0.624941838333334
mp-1185809,Mg5Ag,-0.03274316611111
mp-1288,AgO,-0.395391355208332
mp-1101086,AgSe5,0.102818451471352
mp-1096805,AgBrO2,-0.226917261666665
mp-1100873,YAgSe2,-1.384242088281251
mp-1247313,Zn4AgN3,0.18798876924999902
mp-675942,AgClO2,-0.16089666166666602
mp-677054,AgSbO3,-1.367956170999999
mp-753316,Li2AgF5,-2.14043424791667
mp-758861,Li3AgF4,-2.581184765
mp-996984,AgClO2,-0.27193768291666504
mp-1229055,AgSbTe2,0.098111326250001
mp-1238831,Cr2AgS4,-0.783632478809523
mp-753209,LiAgF4,-1.8124900311111212
mp-996989,LiAgO2,-0.805429973749999
mp-997006,AgPtO2,-0.672532186666665
mp-997021,AgPbO2,-0.9835861316666651
mp-997038,AgPdO2,-0.6587361541666651
mp-1220217,NdGa3Ag,-0.49032001083331506
mp-1025028,PrSiAg,-0.441876382777776
mp-1079321,ErAgS2,-1.5502682079166652
mp-1079429,HoAgSe2,-1.398278297838539
mp-1079656,TmAgS2,-1.528403502656253
mp-1095026,DyAgSe2,-1.402757322005205
mp-582282,GdAgSe2,-1.368606935781247
mp-979271,TbAgSe2,-1.400293207005207
mp-1100976,V3AgO8,-2.074051041805555
mp-1101933,AgClO4,-0.370361691944444
mp-1189406,Nb3AgTe4,-0.23701311354166602
mp-2903321,AgClO4,-0.40638034444444204
mp-561489,AgTeO3,-1.126301108666666
mp-676751,Cr5AgS8,-0.905970127976189
mp-765339,LiAgF4,-1.783383312777787
mp-996968,AgBiO2,-1.113817327916666
mp-996969,AgBiO2,-1.147583364166665
mp-997013,AgClO2,-0.263188569166665
mp-997047,AgBrO2,-0.20354682416666603
mp-569813,In5AgTe8,-0.432294482500001
mp-571103,In5AgSe8,-0.6442695691071421
mp-1078600,TmAgTe2,-1.055861888750001
mp-12902,ErAgTe2,-1.108093612499997