material_id,formula,formation_energy_per_atom
mp-1246500,Ca3CuN3,-0.5877158096428571
mp-1246600,Ba3CuN3,-0.318260661428572
mp-1246848,Sr3CuN3,-0.42775768660714303
mp-23032,CsCuCl3,-1.332224125499999
mp-761897,LiCuF3,-2.323198566999999
mp-554775,CaCuO2,-2.072768574375
mp-685414,Tb11CuSe16,-1.967640336636903
mp-755472,BaCuO2,-1.8800575449999992
mp-1222193,Mg4CuNi,-0.124121419444444
mp-1333124,YCuO3,-2.419534634000001
mp-1018713,HfCuSn,-0.26913109166666604
mp-1024954,HoCuSn,-0.591180114999996
mp-1025128,LaCuPb,-0.42460511499999704
mp-1094035,UGaCu,-0.11353519083333001
mp-1096897,CeCuPb,-0.29568849333332603
mp-11701,YbCuSb,-0.668987868333336
mp-1206421,TbCuSn,-0.6046856122222211
mp-1206800,ErCuSn,-0.590970386666665
mp-1213468,La15CuGe9,-0.777207401800001
mp-1217959,TaCuS2,-1.011595851833333
mp-1220412,NbCuSe2,-0.683408645572921
mp-1245601,NaCuN,0.14998284624999803
mp-12791,SmCuSn,-0.599014081666666
mp-13200,LuCuSn,-0.6299424488888881
mp-13202,YCuSn,-0.600728026666667
mp-13203,ScCuSn,-0.5841547516666681
mp-13212,GdCuGe,-0.6792079950000011
mp-16750,HoCuPb,-0.375390489999998
mp-16751,ErCuPb,-0.370824046666659
mp-16753,LuCuPb,-0.33205180055555
mp-19983,TiCuSn,-0.23237526888888901
mp-20010,DyCuGe,-0.7705650283333341
mp-20290,TbCuPb,-0.396143643888885
mp-20637,SmCuPb,-0.52078586333333
mp-20663,TmCuPb,-0.35469634833333
mp-20774,NdCuSn,-0.5873621158333351
mp-20865,YCuPb,-0.5062752366666671
mp-21436,GdCuSn,-0.625907560000001
mp-22085,DyCuPb,-0.38582957222221803
mp-22188,DyCuSn,-0.598488353888883
mp-22683,CeCuSn,-0.47673783166666006
mp-22953,YbCuBi,-0.365391863333338
mp-567366,CsCuCl3,-1.2996797931666642
mp-567768,YbCuGe,-0.7608316233333361
mp-9387,TbCuGe,-0.7749101499999991
mp-9389,HoCuGe,-0.681018591666665
mp-9390,ErCuGe,-0.683838533333332
mp-1026857,NaMg14Cu,0.07185796323821801
mp-1026863,Mg14CuSi,0.062379871875000006
mp-1026865,RbMg14Cu,0.19486522390625002
mp-1026866,CsMg14Cu,0.20736420934805902
mp-1026868,Mg14CrCu,0.11402708
mp-1026869,Mg14NbCu,0.107522898125
mp-1026872,Mg14CuMo,0.137709875
mp-1026873,SrMg14Cu,0.0687063334375
mp-1026874,Mg14CuB,0.18862418390625002
mp-1026877,Mg14CdCu,0.028757575625000004
mp-1026878,Mg14CuW,0.15715747671874902
mp-1026884,Mg14GaCu,0.02249549890625
mp-1026887,Mg14CuC,0.291033296249999
mp-1026889,BaMg14Cu,0.127638921875
mp-1026894,Mg14CuSb,-0.00013336062499900002
mp-1026895,Mg14CuBi,0.026657314374999002
mp-1026896,HfMg14Cu,0.08589331312500001
mp-1027804,Mg14CuNi,0.057781135000000004
mp-1027816,Mg14CuSn,0.013461279062500001
mp-1027819,Mg14TiCu,0.088256576666666
mp-1027820,Mg14VCu,0.12102140312500001
mp-1027823,LiMg14Cu,0.031662190572917005
mp-1027830,LaMg14Cu,0.0682608084375
mp-1027836,KMg14Cu,0.131099409031248
mp-1027849,Mg14CoCu,0.085837739062499
mp-1027869,Mg14FeCu,0.11491111437500001
mp-1027917,Mg14ZrCu,0.060215136875000005
mp-1027998,Mg14ZnCu,0.038610856250000006
mp-1028087,YMg14Cu,0.047006318749999006
mp-1028141,Mg14MnCu,0.09359427825431
mp-1028165,CaMg14Cu,0.049027606023595
mp-1099091,CeMg14Cu,0.051879929218737006
mp-11833,UCuGe,-0.257540837638913
mp-1206698,CeCdCu,-0.136538115833334
mp-1215905,YCuGe,-0.6377815683333331
mp-1215914,YCuSi,-0.704704323333317
mp-1216535,TmCuGe,-0.624755838333335
mp-1216594,TmCuSi,-0.698976453333334
mp-1216845,UCuSi,-0.246395219500006
mp-1217068,UCuSi,-0.196179889500006
mp-1217183,Ti3CuSn,0.16957216179999302
mp-1217294,Th2CuSi3,-0.6585380750000001
mp-1217567,TbCuGe,-0.728010053333328
mp-1217586,TbCuSi,-0.7027859266666631
mp-1217589,TbCuNi4,-0.308017847777776
mp-1218268,SrCuSi,-0.310940225
mp-1218273,SrCuGe,-0.40452554833333304
mp-1219064,SmCuGe,-0.630077566666668
mp-1219066,SmCuSi,-0.6744529650000001
mp-1219087,SmCo4Cu,-0.053855324166667
mp-1219959,PrCuSi,-0.550313457222222
mp-1219977,PrCuGe,-0.691730730555555
mp-1220165,NdCuSi,-0.6523953358333371
mp-1220173,NdCuGe,-0.708450209166665
mp-1222284,LuCuGe,-0.6102625905555571
mp-1222888,LaCuSi,-0.66032546
mp-1222919,LaCuGe,-0.725368984999998
mp-1222960,LaCuNi4,-0.272428915833331
mp-1223228,La2CuSi3,-0.720971699166665
mp-1223742,HoCuGe,-0.631711153333331
mp-1223814,HoCuSi,-0.6964292000000021
mp-1223858,HoCo4Cu,-0.09619601083333201
mp-1224712,GdCuSi,-0.606028976666665
mp-1225279,DyCuGe,-0.7235552550000031
mp-1225280,DyCuSi,-0.70120819166667
mp-1225367,Eu2CuSi3,-0.41421663000000203
mp-1225481,LaCuSn,-0.6305857699999771
mp-1225494,ErCuSi,-0.6968259561111141
mp-1225551,ErCuGe,-0.6335518383333321
mp-1226602,CeCuGe,-0.5421379133333291
mp-1226620,CeCuSi,-0.6185563850000001
mp-1226665,CeCuPt4,-0.6959409272222621
mp-1226692,CeCo4Cu,-0.07665152999999901
mp-1226816,Ce2CuGe3,-0.596324095833332
mp-1226866,CeInCu,-0.29051172999999103
mp-1226885,Ce2CuSi3,-0.672731274166667
mp-1227245,CaCuGe,-0.48813673111111305
mp-1227246,CaCuSi,-0.41577003004065205
mp-1227964,BaCuGe,-0.35085502833333604
mp-1245622,CsCuN,0.17219312032088302
mp-1245663,CdCuN,0.24911079166666603
mp-1245836,CaCuN,-0.469212670277778
mp-1245943,RbCuN,0.173303345833332
mp-1246678,KCuN,0.23758603988888702
mp-1078430,ScCuGe,-0.659026773333332
mp-1078729,Zr6CuBi2,-0.291700225555557
mp-1078853,DyCdCu,-0.27520328833333
mp-1079017,CeCdCu,-0.174256614722221
mp-1079797,SmCdCu,-0.263003060555554
mp-1080085,PrInCu,-0.446723198333333
mp-1080594,DyInCu,-0.504393652777777
mp-1080624,YInCu,-0.5018810344444471
mp-1084809,PrCdCu,-0.23941757277777803
mp-1179530,SmInCu,-0.482352538888891
mp-1205789,LaCuPd,-0.555385894000001
mp-1205969,CeMgCu,-0.053399669999998005
mp-1206354,ScCuGe,-0.48583360111111
mp-1206358,ScCuGe,0.11803607111111102
mp-1206944,LaMgCu,-0.170175606666668
mp-13171,YMgCu,-0.190149018333331
mp-15322,ScCuSi,-0.686937607777778
mp-19782,TbInCu,-0.5064858
mp-20665,CeInCu,-0.403753805555557
mp-21458,GdCdCu,1.093467389444447
mp-22696,NdInCu,-0.46364907583333403
mp-3015,HoInCu,-0.40506756055555704
mp-3950,ErInCu,-0.49477081777777704
mp-567932,LaMg4Cu,-0.11215172638888801
mp-1105845,LuCuS2,-1.5709257986978962
mp-1189200,TmCuS2,-1.5839011539062322
mp-1193274,CuPO5,-1.010669808877551
mp-1193752,CuTeO5,-0.47695109202380903
mp-1193783,CuTeO5,-0.393592785595238
mp-1193978,CuSeO5,-0.396191116763393
mp-1194215,CuSeO5,-0.6512582285491071
mp-1226699,Cs2CuBr3,-1.5435006682183912
mp-12843,YCuS2,-1.591174854531262
mp-17095,CsCuSe4,-0.5096873618750001
mp-18003,CsCuS4,-0.531011361458332
mp-18365,RbCuSe4,-0.7226372223958291
mp-540496,Cu(PO3)3,-2.193952568956044
mp-554120,DyCuS2,-1.59301068328126
mp-559826,ErCuS2,-1.582563287239565
mp-560611,HoCuS2,-1.59056209953126
mp-727231,CuS4N,0.6118176929340271
mp-766254,Cu(PO3)3,-2.186996017417583
mp-778612,Na3CuO2,-1.338682740272988
mp-1213399,CuN4O3,1.304810424999999
mp-1105851,Hf5CuSb3,-0.544096777222217
mp-1106301,Zr5CuSn3,-0.540349418888889
mp-1188159,Zr5CuBi3,-0.39431656999999803
mp-1188172,Ti5CuSb3,-0.535953844814817
mp-1188208,Zr5CuSb3,-0.7486174372222211
mp-1188531,Zr5CuPb3,-0.28750514833333
mp-1188561,Pr5CuBi3,-0.8383401270370301
mp-1188578,La5CuPb3,-0.50582190111111
mp-1189076,La5CuBi3,-0.9042642066666461
mp-1189550,Ce5CuPb3,-0.33479382222222004
mp-1189555,Ce5CuBi3,-0.812495592361099
mp-1189755,Nd5CuBi3,-0.700098558611111
mp-1189765,Zr5In3Cu,-0.23030469611111
mp-1190137,Tb5CuBi3,-0.789825461805555
mp-1190264,Ce5CuSn3,-0.47632496888888604
mp-1208239,Ti5CuSn3,-0.37753231370370405
mp-1208323,Ti5CuBi3,-0.199371068148151
mp-1208445,Tb5CuPb3,-0.49535324037036804
mp-1209722,Sm5CuPb3,-0.6514958497999841
mp-1210658,Lu5CuPb3,-0.42580574759259104
mp-1211768,La5CuGe3,-0.7064247172222241
mp-1212275,Ho5CuPb3,-0.47100092111110603
mp-1213285,Er5CuPb3,-0.470711541666658
mp-1213290,Dy5CuPb3,-0.484135626481477
mp-31469,Hf5CuSn3,-0.378818996666664
mp-581831,Gd5CuBi3,-0.7456329572222241
mp-607409,Hf5CuPb3,-0.090539584444441
mp-646750,Y5CuPb3,-0.6393695179059661
mp-680754,Ca5CuPb3,-0.436229524999998
mp-1018685,ErCuSn,-0.540098946666665
mp-1018705,GdCuPb,-0.420194426666663
mp-1018714,HfGaCu,-0.3825865525
mp-1018724,HoCuSn,-0.5448290866666641
mp-1018741,LaCuPb,-0.406107483333332
mp-1018893,PrCuSn,-0.5646826888888871
mp-1018900,PrCuPb,-0.481010418888885
mp-1019275,TbCuSn,-0.5660282255555541
mp-1071618,NdCuSn,-0.5755349108333371
mp-1072011,HoCuPb,-0.316002746666663
mp-1072037,HoCuGe,-0.675857506666665
mp-1072756,UCuSn,-0.050736316666663006
mp-1072823,LuCuSn,-0.5682954972222181
mp-1072824,DyCuSn,-0.5552784955555531
mp-10749,SrCuSb,-0.7653390883333341
mp-1077108,SmCuSn,-0.5744550766666661
mp-1077167,TmCuSn,-0.5246540633333321
mp-1077175,DyCuPb,-0.33066455388888605
mp-1077348,CeInCu,-0.293646208333328
mp-1077351,ZrGaCu,-0.43730266250000105
mp-1077392,TmCuGe,-0.664082501666667
mp-1077463,ErCuPb,-0.309338904999998
mp-1077744,SmCuPb,-0.48068086999999105
mp-1077802,UGaCu,-0.11500515916666501
mp-11019,GaCuO2,-1.6750175293749892
mp-11700,BaCuSb,-0.757941335000002
mp-1178161,HoCuO2,-2.755550464999999
mp-12029,Li2CuP,-0.646212165327381
mp-1206169,SrCuSi,-0.31478268333333403
mp-1207927,UCuSi,-0.24983814116667202
mp-1217791,Ta2Cr3Cu,0.072444525416666
mp-1218034,Ta2V3Cu,-0.032409425166662
mp-1223903,InCuNi,0.013765460000004
mp-12557,SrCuAs,-0.9286288908333321
mp-14623,K5CuAs2,-0.32626086953125005
mp-15686,Li2CuAs,-0.606364842708333
mp-16254,BaCuP,-0.7276669115476241
mp-16321,SrCuP,-0.8173132265476171
mp-20024,LaCuSn,-0.6738442949999991
mp-2052115,GdCuGe,-0.6805398299999981
mp-20766,CeCuGe,-0.582538709999996
mp-21373,EuCuP,-0.880650371547621
mp-22277,EuCuAs,-0.832720397500005
mp-22292,EuCuSb,-0.772728946666669
mp-22740,CeCuSi,-0.640837746666666
mp-22761,CeCuSn,-0.538675721666661
mp-22941,CaCuBi,-0.548325719166678
mp-22960,YbCuBi,-0.357051998333337
mp-2918,YCuO2,-2.712541574999999
mp-30451,SrCuBi,-0.613110852564095
mp-31145,BaCuBi,-0.536618300000001
mp-3642,ScCuO2,-2.724876606249999
mp-4120,CaCuAs,-0.9415454925000001
mp-4476,HoCuSi,-0.732487628333333
mp-4835,LaCuSi,-0.675431773333334
mp-505110,FeCuO2,-1.316041154999999
mp-505562,CrCuO2,-1.784237707499988
mp-5365,DyCuSi,-0.7355499283333341
mp-549158,InCuO2,-1.482666360416665
mp-5514,TbCuSi,-0.7364028166666661
mp-569526,RbCuCl3,-1.4347069325000001
mp-5910,CaCuSb,-0.731821528333333
mp-607182,GdCuSi,-0.632381538333332
mp-635456,EuCuBi,-0.503001696666668
mp-675287,CsCuCl3,-1.2830019831666641
mp-7435,KCuSe,-0.830537769864582
mp-7436,KCuTe,-0.7233970996388901
mp-758689,Li3CuF4,-2.645253740624999
mp-774712,LiCuS,-0.8539796619444431
mp-8119,PrCuSi,-0.5713281505555551
mp-8120,NdCuSi,-0.677422834166667
mp-8121,SmCuSi,-0.7035757583333341
mp-8122,ErCuSi,-0.727603939444447
mp-8123,TmCuSi,-0.727845513333335
mp-8124,YbCuSi,-0.728462728333335
mp-8125,LuCuSi,-0.629427517222222
mp-8126,YCuSi,-0.7350355066666641
mp-8432,CaCuP,-0.9806242109920641
mp-9439,YbCuSb,-0.669252818333338
mp-9898,BaCuAs,-0.745497724166662
mp-997029,TlCuO2,-0.9274780170833341
mp-997180,VCuO2,-1.846986385000001
mp-1225744,CuTeSe,-0.12021802385416601
mp-1225747,CuSeS,0.0005325783402790001
mp-775644,V3CuO8,-2.039223064166666
mp-1025502,TiCuF6,-2.995819661666666
mp-1045916,ZnCuO2,-1.158542790624999
mp-1045981,MgCuO2,-1.816840535624999
mp-1045992,CaCuO2,-2.022723383125
mp-1046929,CaCuO2,-1.9950358474999992
mp-1103679,CuWO4,-1.5800792700000001
mp-1104691,CuSO5,-1.191813676785714
mp-1178374,CuCO3,-1.353237661
mp-1188600,UCuO6,-1.709137023124999
mp-1188802,CuAgF3,-1.5471762095
mp-1191323,CuMoO4,-1.565026126666668
mp-1192919,CuSO9,-0.32946011522727303
mp-1199244,CsCuS6,-0.398226909609373
mp-1206085,MnCuF6,-2.229693058491379
mp-1207697,Zr3CuF6,-2.267027206
mp-1213055,CuPbF6,-1.962069736249999
mp-1213075,CuPdF6,-1.58602037125
mp-1213671,CuSn3F6,-1.011220249625
mp-1216902,V6CuO15,-2.198725165454546
mp-1217205,Ti5CuS10,-1.523790841979165
mp-1238816,Cr2CuS4,-0.711339200714283
mp-1383106,ZnCuO2,-1.144256223749999
mp-1403957,MgCuO2,-1.750629162499999
mp-1406521,CaCuO2,-2.011822174375
mp-1436582,ZrCuF6,-2.02365196
mp-1786455,CaCuF5,-2.708980647857143
mp-17869,NaCuF3,-2.3130719495
mp-19859,CuMoF6,-2.35789001625
mp-2234110,V2CuO6,-1.9970684222222221
mp-22773,CuWO4,-1.7008661766666662
mp-28376,CuAuF5,-1.54750783642857
mp-28488,CuPtF6,-1.613711773125
mp-4701,CuSnF6,-2.3417658062499997
mp-505436,CuP4O11,-2.3299170672544642
mp-541991,CuMoO4,-1.5706039458333332
mp-560049,CuSeO3,-1.093140096468751
mp-560865,ZrCuF6,-0.598762343749999
mp-560888,CuMoO4,-1.5608580725000012
mp-615420,U3CuO10,-3.195235199285712
mp-619545,CuMoO4,-1.577344520000001
mp-675275,Tl2CuF3,-1.614076199999999
mp-675402,CuAgO2,-0.5553869129166651
mp-690658,V2CuO6,-1.985956454444445
mp-752701,LiCuF3,-2.34662675583333
mp-754468,NaCuO2,-1.323277578469826
mp-755115,CuReO4,-1.712742677083332
mp-757221,CuNi9O10,-1.1255996025
mp-759720,LiCuO2,-1.413818823333332
mp-760790,LiCuF4,-2.057050665777781
mp-762326,Li2CuF5,-2.423879192291666
mp-768337,CuReO4,-1.690862030694444
mp-768878,CuReO4,-1.745691165972222
mp-779530,Cu(PO3)3,-2.153066408379121
mp-852643,CuReO4,-0.7843057951388891
mp-881629,LiCuF4,-1.4894566874444481
mp-908109,CuMoF6,0.577531233750002
mp-990265,CuSnF6,0.042001524999998006
mp-27336,CsCuBr3,-1.249501644431033
mp-997011,CuBrO2,-0.39971131124999904
mp-997020,CuClO2,-0.51102649125
mp-997035,CuO2F,-0.8763411025000001
mp-1214079,Ca6Cd32Cu,-0.153578376410254
mp-23370,CuW3Br7,-0.799489815113635
mp-29557,CuW3Cl7,-0.78240204931818
mp-568397,CuMo3Cl7,-0.990046611249999
mp-571184,CuMo3Br7,-0.9621440485227271
mp-760812,Li3CuF6,-2.554557467166659
mp-1216830,U2Be25Cu,-0.064858548035714
mp-1105167,VCuO3,-1.737232236500001
mp-1213509,Cu(BrO6)2,0.392377597499999
mp-1246961,Li3CuN2,-0.20668242606150802
mp-766506,Li3CuS2,-1.1922166877083331
mp-1215345,Zr8Co3Cu,-0.20793476333333402
mp-753714,Li3CuS2,-1.134864995833333
mp-1008807,RbCuO,-0.190537467499999
mp-1008867,NaCuO,-0.6863907787931021
mp-1009014,LiCuO,-1.031819572777777
mp-1009020,KCuO,-0.35897504408333203
mp-1065918,Mn2CuGe,0.137755707284482
mp-10685,CdCuSb,0.252541321249997
mp-1100413,TiCuB,-0.237408117743055
mp-1100435,ZrCuB,-0.23298990305555603
mp-1100441,CrCuB,0.26635272666666704
mp-11361,MgCuSn,-0.167420896666666
mp-1184041,Cu(SnS2)4,-0.442010172115378
mp-11882,TiCuHg2,0.17923134067708402
mp-1206708,CeCd2Cu,-0.186459201666679
mp-1207094,MgCuPb,-0.009511431666665
mp-1207143,LaCd2Cu,-0.18959971624999902
mp-1215370,Zr4CuS8,-1.714396173846152
mp-1222012,MgBe4Cu,-0.018655102499999
mp-1225652,CuAgTe,0.07912192416666601
mp-1226056,Co5CuS8,-0.503141700892854
mp-1227281,Be4CuSi,0.127331294999999
mp-1227292,Be4CuGe,0.1702956725
mp-1227318,Be4InCu,0.171065972222222
mp-15988,Li2CuSb,-0.48556522833333204
mp-2210612,MgCuS,-0.25690221083333203
mp-2221507,V2CuS4,-1.053339290714285
mp-30449,MgCuBi,-0.09895257833333301
mp-30582,HfCuHg2,0.144864706249997
mp-30583,ZrCuHg2,0.045080726249996005
mp-30591,Li2CuSn,-0.32586152291666604
mp-33300,Fe5CuO8,-1.507184307142858
mp-3522,MgCuSb,-0.32565874499999803
mp-35841,Li2CuGe,-0.319751125416666
mp-568800,CdCuSb,0.14757317791666402
mp-5866,MnCuSb,-0.085109634827588
mp-631371,TlCuIr,0.526797712222228
mp-631379,ZnCuMo,0.9674886666666661
mp-631382,YMgCu,0.5587431983333331
mp-631422,CuSiBr,0.5012402783333331
mp-631427,CuIrBr,1.000008725
mp-631463,CuTcBi,0.6814291816666671
mp-631505,BeCuBr,0.5713827866666661
mp-636240,MgCuSn,0.09506045
mp-674514,In5CuS8,-0.699669817142855
mp-759877,Li4CuF7,-2.665654211527782
mp-999566,Mn2CuSb,0.132716110775863
mp-1017556,CuNi3N,-0.027755303750001
mp-1023129,KCuCl3,-1.260361290249999
mp-1070242,Mn3CuN,1.62547395181034
mp-1075902,EuCuO3,-1.9776721720000001
mp-1076070,LaCuO3,-2.399634706
mp-1076317,MgCuO3,-1.155388759999999
mp-1076706,SmCuO3,-2.287715097999999
mp-1076711,SrCuO3,-1.740167172999999
mp-1076800,BaCuO3,-1.663166091
mp-1080799,CuNF3,-0.246280713999999
mp-1099249,Mg3CuO4,-2.494849629374999
mp-1099873,CaCuO3,-1.700447860999999
mp-1100778,ZnCuO3,-0.541100275
mp-1183426,BeCuO3,-0.822260176
mp-1183696,CrCuO3,-1.024200594999999
mp-1183771,DyCuO3,-2.232829211333333
mp-1184042,CuBO3,-0.696853816833333
mp-1184044,CuHgO3,-0.347448159500001
mp-1184051,CuBiO3,-1.092523053
mp-1184073,CuPdO3,-0.09465899899999901
mp-1184117,CuPbO3,-0.917831334999999
mp-1184157,ErCuO3,-2.203922848999999
mp-1184481,GdCuO3,-2.246362585
mp-1184736,HoCuO3,-2.214273023999998
mp-1186515,PrCuO3,-2.312583337333333
mp-1187321,TbCuO3,-2.251320996333332
mp-1187469,TiCuO3,-1.936134507666667
mp-1187483,TlCuO3,-0.656654345666667
mp-1187487,ThCuO3,-2.467409856999999
mp-1187562,YbCuO3,-2.031362008249999
mp-1432347,YCuO3,-2.208991297
mp-2647102,PuCuO3,-2.001217212749996
mp-510380,Mn3CuN,-0.209661352189658
mp-554601,RbCuF3,-2.3056485615
mp-554973,TlCuF3,-1.861619619999999
mp-5566,KCuF3,-2.354250548449999
mp-864606,AcCuO3,-2.4228924235
mp-973068,ScCuO3,-1.837501564
mp-975364,RbCuO3,-0.6591540465000001
mp-975443,InCuO3,-0.905988302333332
mp-977389,CeCuO3,-2.334185237
mp-998147,TlCuCl3,-1.051494141166669
mp-998196,RbCuBr3,-1.2007867865
mp-998414,CuAgF3,-1.529609442
mp-1079457,Cu(BrN3)2,2.257633216666666
mp-1183120,Ac2CuRu,-0.016838317499995002
mp-1183482,Ca2CuRh,-0.23997257506944403
mp-1183898,Eu2CuIr,-0.221375352500002
mp-1183906,Eu2CuRh,-0.22981733250000103
mp-1184005,GaCuNi2,-0.24082098499999902
mp-1184030,GaCuPd2,-0.479113784999999
mp-1184057,CuSnPd2,-0.38148450249999705
mp-1184091,Er2CuAu,-0.573516309999998
mp-1184092,Er2CuPd,-0.613074276666665
mp-1184094,Dy2CuPt,-0.8292689349999941
mp-1184097,Er2CuTc,-0.151292746249996
mp-1184104,CuRh2Pb,-0.034997475
mp-1184124,Er2CuIr,-0.644442577499999
mp-1184422,Gd2CuRu,-0.23625457374999903
mp-1184428,Gd2CuOs,-0.179011519999995
mp-1184435,Gd2CuAu,-0.513057892499999
mp-1184585,Ho2CuOs,-0.334136735000001
mp-1184609,Hf2CuTc,-0.33759410374999804
mp-1184615,Hf2CuRh,-0.481268304999997
mp-1184620,Hf2CoCu,-0.242313967499999
mp-1184642,Ho2ZnCu,-0.28685937499999503
mp-1184699,Ho2CuIr,-0.6151072924999961
mp-1184717,Ho2CuPt,-0.845878034999998
mp-1185314,LiCd2Cu,-0.14303163666666602
mp-1185322,LiCuAu2,-0.30308169833333404
mp-1185442,Lu2CuPd,-0.6487206658333301
mp-1185452,Lu2CuAu,-0.5968943908333321
mp-1185457,Lu2CoCu,-0.267938758333334
mp-1185992,MnCuPt2,-0.260541699482757
mp-1186451,Pm2CoCu,-0.062656988749999
mp-1186452,Pm2CuAu,-0.46577829624999906
mp-1186453,Pm2GaCu,-0.39487840625000104
mp-1186454,Pm2CuNi,-0.19093916125000002
mp-1186462,Pm2CuPd,-0.47875115375000005
mp-1186940,Sc2CoCu,-0.25179524000000103
mp-1186941,Sc2CuPd,-0.5839053525000001
mp-1186945,Sc2CuNi,-0.3903659975
mp-1186958,Sc2CuRh,-0.638488027499999
mp-1187006,ScZn2Cu,-0.264902471249999
mp-1187070,Sr2CuPt,-0.39627273634166105
mp-1187272,Tb2CuIr,-0.5766730508333321
mp-1187409,Th2CuTc,-0.07900648374999701
mp-1187431,Ti2CuIr,-0.501317696666665
mp-1187436,Ti2CuRe,-0.306539218958334
mp-1187608,Tm2CuRh,-0.6182651450000011
mp-1187631,Tm2GaCu,-0.497977452500006
mp-1187677,YbCuPd2,-0.657829063749999
mp-1187716,Y2ZnCu,-0.269290342499999
mp-1187718,Y2CuOs,-0.254398324531251
mp-1187723,Y2CuAu,-0.525264304999999
mp-1187771,Y2CuPt,-0.7944589899999991
mp-1187800,Zn2CuRh,-0.2764296
mp-1187894,Yb2CuPd,-0.653741762500001
mp-1187940,Zr2CuRe,-0.21405377562499803
mp-1205922,Cu(IN3)2,2.437952364444444
mp-1206110,MnCuPt6,-0.19212937224137802
mp-1206438,Rb2CuF6,-2.275893610555554
mp-1206656,TbMg2Cu,0.068705230833333
mp-1215272,ZrCuF6,-3.1687033125
mp-1232423,Zr2CuTc,-0.269826008749999
mp-28692,Cs2CuF6,-2.1812346388888892
mp-30069,CuNi2Sb,-0.07411526916666601
mp-30504,CeMg2Cu,0.14339414390625102
mp-30592,CuNi2Sn,-0.135795281249999
mp-30595,CuSnRh2,-0.348417891249998
mp-3648,Zn2CuAu,-0.14467874999999703
mp-631418,CuRe2Cl,1.20220839472222
mp-631442,V2CuBr,0.514859423749999
mp-753139,Li6CuF8,-2.877715247333333
mp-861499,Pr2CuIr,-0.43411000881944506
mp-861588,Pr2CuRu,-0.13750002253787402
mp-861883,Ac2CuIr,-0.342298746250001
mp-862331,La2CuRu,-0.1796254525
mp-862338,Sc2CuRu,-0.47142781999999805
mp-862340,Sc2GaCu,-0.49156072250000005
mp-862376,Sc2CuTc,-0.25305230875
mp-862485,GaCuRh2,-0.37303708687499804
mp-862536,La2CuIr,-0.43945311750000104
mp-862657,LiCuPd2,-0.28482597666666504
mp-862683,Ac2GaCu,-0.287378448749997
mp-862786,Ac2CuGe,-0.386251328749999
mp-862791,GaCuPt2,-0.42677129687499904
mp-862940,Er2CuPt,-0.860273706666667
mp-862944,Er2CuRu,-0.38564200749999805
mp-863664,Pm2CuGe,-0.510325878750002
mp-863665,Pm2CuIr,-0.523522236249998
mp-863668,Pm2CuOs,-0.14791901875000202
mp-863669,Pm2CuPt,-0.698361048749998