material_id,formula,formation_energy_per_atom
mp-623862,Rb3Tm2Cu4Br13,-1.5945985630681832
mp-1225830,Cu4Si(GeO4)3,-1.7489628422499992
mp-2218281,MgCd2(Cu2O3)2,-1.019517958846153
mp-2218800,Sr2Mg(Cu2O3)2,-1.5037626403846152
mp-1218623,Sr3La(CuO2)4,-2.202052722499999
mp-1199963,UCu4(SeO7)2,-1.382242527842261
mp-759742,LiCu4(PO4)3,-1.926531657113095
mp-557728,KCu4AsS4,-0.570816937974999
mp-2232124,MgCu4(GeO4)2,-1.435304407
mp-1218445,Sr3Ca(CuO2)4,-2.083874177499999
mp-2229681,Ba4Mg(CuO2)4,-1.836300162058823
mp-1104755,Cu4NiGe2S7,-0.56714670875
mp-1323588,ZnCu4(SnSe4)2,-0.549454121249999
mp-2217616,MgCu4(OF2)2,-1.753319381363636
mp-2229778,MgCu4(SO5)2,-1.438913448235293
mp-2232281,MgCu4(Ag2O3)2,-0.752027899444444
mp-557274,Cu4Si2NiS7,-0.6728928866071421
mp-680676,K2Dy4Cu4S9,-1.654672769929822
mp-557258,Tl4Cu4(P2O7)3,-2.050967497819728
mp-1213317,Cu4AsClO6,-1.1380970764583331
mp-762274,LiCu4(PO4)3,-1.9033091451130941
mp-1218269,SrLa3(Cu2O5)2,-2.414049009722223
mp-2218579,Na2Mg(Cu2O3)2,-1.168651235981432
mp-2219332,MgCu4(AsS)4,-0.38063877807692303
mp-2219734,MgCu4(AsS)4,-0.364370860384615
mp-2228412,Nd4Mg(Cu2O5)2,-2.331022414999999
mp-762116,LiCu4(PO4)3,-1.927307303863095
mp-1195036,DyMnCu4P3,-0.46349913122514
mp-1195405,HoMnCu4P3,-0.46277009770662103
mp-1202250,Cu4BiSe4I,-0.40272443643750105
mp-504260,LiCu4(PO4)3,-1.956447428113095
mp-1214577,Ba2Sm(CuO2)4,-2.044231239666666
mp-1214709,Ba2Eu(CuO2)4,-1.937123295666666
mp-1214720,Ba2Gd(CuO2)4,-2.044584541999999
mp-20509,Ba2Y(CuO2)4,-1.705652052
mp-2218648,Sr2Mg(Cu2O3)2,-1.752401878846154
mp-6205,Ba2Ho(CuO2)4,-2.061363985
mp-643471,Ba2Y(Cu2O3)2,-1.823967308461537
mp-6583,Ba2Er(CuO2)4,-2.063684899999999
mp-6691,Ba2Dy(CuO2)4,-2.060182476777778
mp-6710,Ba2Tm(CuO2)4,-2.066025895333333
mp-6779,Ba2Pr(CuO2)4,-2.024219551444444
mp-6789,Ba2Y(CuO2)4,-1.764792252
mp-6790,Ba2Y(CuO2)4,-2.050150574666667
mp-1227273,CaNd2(CuO2)4,-2.139381674333332
mp-698171,Cu4H7SO11,-1.023887666793477
mp-707201,Cu4H10SO12,-1.179274480370369
mp-1229289,Ba11Cu4Bi9O29,-2.030108468962264
mp-1370955,K2Dy4Cu4S9,-1.650922205719296
mp-2222879,MgTi(CuS)4,-0.602612379833333
mp-2227114,MgZn2(CuO2)4,-1.250140685
mp-2229118,MgCu4(SO5)2,-1.486922169999999
mp-680679,K2Ho4Cu4S9,-1.651837624315787
mp-1229267,CeIn3(CuSe2)4,-0.776385141796874
mp-2223052,MgTi(CuS)4,-0.600955575833332
mp-2226817,Dy2Mg(CuO2)4,-1.952316483222221
mp-2232102,Nd2Mg(CuO2)4,-1.944789138666666
mp-2232282,Sm2Mg(CuO2)4,-1.948808625
mp-2241251,La2Mg(CuO2)4,-1.985590727666667
mp-558364,Cu4Te5(ClO3)4,-1.252839492533333
mp-761193,LiCu4(PO4)3,-1.909336318863094
mp-1223395,La5Dy3(CuO4)4,-3.025642332857142
mp-1223511,LaGd(CuSn)4,-0.44005204100000106
mp-1225406,Eu2Cu4Si3Ge,-0.42714775750000006
mp-1076683,Ba3Sr5Co4(CuO5)4,-1.9611063067361112
mp-1099990,BaSr7Co4(CuO5)4,-1.9774231763888892
mp-1101021,Tl3Cu4As8Pb3S20,-0.44724116131578906
mp-1182569,Ba2Ca3Tl2(CuO3)4,-1.332624952898551
mp-1221868,MnCoCu4(SnS4)2,-0.6148537779956891
mp-1229146,Ba2Cu4As5H3O20,-1.7058816223897062
mp-1233260,MgCu4H8(CO5)2,-1.1750715834
mp-1234265,MgCu4H8(CO5)2,-1.1614066234
mp-1235090,LiCu4H8(CO5)2,-1.115291652133333
mp-1235553,Ba2LiEu(CuO2)4,-1.951919222395833
mp-2229071,Rb2MgV2(CuS2)4,-0.9805516829411761
mp-2229237,K2MgNb2(CuS2)4,-0.9551529058529411
mp-686833,Sr7LaCu4(BiO3)8,-1.846931970113637
mp-741593,Ba4Y2Cu4W2O17,-2.383165223275862
mp-1173455,Rb2Cu4H5(SO5)4,-1.5663715737500001
mp-1173785,Na2Cu4H5(SO5)4,-1.5549351371145321
mp-1218644,Sr5CaCu4(BiO2)4,-1.63499302
mp-1235120,Ba2LiEu(CuO2)4,-1.8797956061458332
mp-2230081,Rb4MgTi2(CuS2)4,-1.010244613245613
mp-2232926,Ba2YMg(CuO2)4,-1.9812435453125001
mp-2233040,Ba2DyMg(CuO2)4,-1.989728054166665
mp-2233244,Ba2HoMg(CuO2)4,-1.991950969374999
mp-2240937,Ba2YbMg(CuO2)4,-1.8538661000000012
mp-2241055,Ba2ErMg(CuO2)4,-1.9928049640624992
mp-2241218,Ba2PrMg(CuO2)4,-1.956586576041666
mp-2241328,Ba2TmMg(CuO2)4,-1.9953832171875001
mp-1225836,Cu4Bi3Pb(SeO)4,-0.968228658085937
mp-1201664,CdCu4H14(SO9)2,-1.328660316730769
mp-1208185,TlV3CdCu4O13,-1.652226397424243
mp-1209242,RbV3CdCu4O13,-1.7341316907954551
mp-1211626,KV3CdCu4O13,-1.740636192147727
mp-505094,KMgV3Cu4O13,-1.897210823738636
mp-1215746,ZnCdCu4(SnS4)2,-0.675927773749999
mp-1226945,CdFeCu4(SnSe4)2,-0.536847485546874
mp-2228344,Rb4MgTi2(CuS2)4,-1.169170822192981
mp-1191912,NaTl3Cu4(TeO6)2,-1.232399806123302
mp-1218663,Sr8Mn6Cu4Se4O15,-2.169350927350303
mp-1218690,Sr8Mn6Cu4S4O15,-2.191123311150978
mp-2230048,MgCu4H6(ClO3)2,-1.177543176447367
mp-1227667,BaSrV4(CuO4)4,-2.108016911538461
mp-1228579,Ba2Ca3Cu4HgO10,-2.056499590625001
mp-1105348,La5Cu4P4(ClO2)2,-2.191816937030075
mp-1188264,La5Cu4As4(ClO2)2,-2.150403105
mp-1191679,Sr2Ca3Cu4(BiO6)2,-2.060112909130434
mp-1228619,Ba4Pr4Fe4Cu4O21,-2.375400651396396
mp-1371798,Ba2Tl2Zn3(CuO3)4,-1.388320876376812
mp-1806359,Ba2CaTl2(CuO3)4,-1.456117314126984
mp-1809443,Ba2CaTl2(CuO3)4,-1.416531132222222
mp-1813048,Ba2Mg3Tl2(CuO3)4,-1.753739700072463
mp-556574,Ba2Ca3Tl2(CuO3)4,-1.958294221594204
mp-556733,Ba2Ca3Tl2(CuO3)4,-1.971371605507247
mp-1204584,NaCu4P2ClO9,-1.7928295969508832
mp-1076054,BaSr7Co4(CuO6)4,-1.8270563097499992
mp-1173434,Rb2Cu4H5(SO5)4,-1.255756474035715
mp-1205020,CaCu4As4(HO13)2,-0.6561648584459461
mp-1356028,Ba2Cu4Te4Cl4O11,1.8346233985333331
mp-2229207,MgCu4As2(ClO4)2,-1.423242373529412
mp-561174,Ba2Cu4Te4Cl4O11,-1.6566083284666662
mp-21652,Sr8CaCu4(ReO8)3,-2.4234768259375
mp-1228428,Ba4La4Cu4(BO6)3,-2.7893779984090923
mp-1228589,Ba2Ca3TlCu4O11,-2.045317520873015
mp-1194007,FeCu4BiPbS6,-0.519639930769229
mp-1215760,ZnFeCu4(GeS4)2,-0.640931413125
mp-1218853,Sr2CaPr3(CuO3)4,-2.487917811590909
mp-1227433,BaSrY(CuO2)4,-2.058420593333333
mp-1227548,Ca2La3Cu4AgO12,-2.2669641303030312
mp-1228600,Ba3La5Tl2(Cu2O9)2,-2.479503969427084
mp-1234183,Ba2EuMg(CuO2)4,-1.8923532299999999
mp-1235413,Ba2LiEu(CuO2)4,-1.862080201145834
mp-1215727,ZnCu4Sn2HgS8,-0.6160297157812491
mp-1221832,MnCdCu4(SnSe4)2,-0.578973797292564
mp-2229629,Na2MgNb2(CuS2)4,-0.8805104310446241
mp-766680,MnCu4H14(SO9)2,-1.347378600139257
mp-1173180,SrLa7Ti4(Cu2O11)2,-3.170651066535087
mp-1222062,MnCdCu4(GeSe4)2,-0.5440784916675631
mp-1228408,Ba3SrY8(CuO5)4,-3.0467929175
mp-1236228,Ba2LiEu(CuO2)4,-1.859585776770833
mp-2229035,Na2MgNb2(CuS2)4,-0.8711815616328591
mp-2229258,K2MgV2(CuS2)4,-0.9952393640882341
mp-2229367,K2MgNb2(CuS2)4,-0.952911232323528
mp-2229476,Rb2MgV2(CuS2)4,-1.010786007058823
mp-2229945,MgCu4Ag2(PS4)2,-0.43732965633053106
mp-2230541,MgCu4H6(ClO3)2,-1.144545449605262
mp-2232919,Ba2DyMg(CuO2)4,-1.956704626041665
mp-2240946,Ba2PrMg(CuO2)4,-1.9756557279166662
mp-2241054,MgCu4Ag2(PS4)2,-0.489300773389355
mp-694970,SrLa7Cu4(SnO6)4,-2.709066436125
mp-1221493,Na2Cu4P2ClO9,-1.851983987058019
mp-1198506,Cu4H18C6S3I4,-0.26754779178571403
mp-2230093,Rb4MgTi2(CuS2)4,-1.034824131666665
mp-559339,Sr8Tl3Cr(CuO5)4,-2.049667713333334
mp-1218585,Sr4Y2Fe2Cu4O15,-2.276390513148147
mp-2227942,La3MgCu4(P2O)2,-0.9149391191836731
mp-1075989,Ba3Sr5Co4(CuO6)4,-1.816097285749999
mp-1236073,Ba2LiEu(CuO2)4,-1.7948421017708331
mp-2228392,Rb4MgTi2(CuS2)4,-1.16926130114035
mp-682554,FeCu4Re14(Mo3S20)2,-0.8830569963846161
mp-1195054,Na4Cu4H18C8O23,-1.250922579789775
mp-691038,Cu4H24C13N7Cl,-0.096983722959184
mp-1195138,SrTiCu4P4O17,-2.393835467292769
mp-1195143,BaTiCu4P4O17,-2.402838482848324
mp-559899,BaVCu4P4O17,-2.27980861031746
mp-1223082,La4Cu4SeS3O4,-2.3413110421777352
mp-1223088,La4Cu4Se3SO4,-2.321739771533203
mp-1173215,Sr4CaYGa2(Cu2O7)2,-2.03694569903846
mp-1228697,Ba4CeEu3Tl2(Cu2O9)2,-2.285222013177084
mp-1233622,Rb2MgCu4H5(SO5)4,-1.666803118506945
mp-1233826,MgCd4Cu4As4(HO5)4,-1.474938568918919
mp-1233896,Rb2MgCu4H5(SO5)4,-1.665111638784722
mp-1233920,Rb2MgCu4H5(SO5)4,-1.673345879895833
mp-1234188,Rb2MgCu4H5(SO5)4,-1.634588541006944
mp-1234789,Rb2MgCu4H5(SO5)4,-1.661321280451389
mp-1218589,Sr4CaPr2Cu4HgO14,-2.302728830224358
mp-2230815,La5MgCu4P4(ClO2)2,-2.014972779428571
mp-1173231,Sr4CaYCo2(Cu2O7)2,-2.189794717692308
mp-1173221,Sr4Ca2TlCu4PbO14,-2.076023019743589
mp-1218536,Sr4CaLaTl2(Cu2O7)2,-2.142036578910256
mp-1218645,Sr4CeY3Fe2(Cu2O9)2,-2.5839724243749993
mp-1218607,Sr4CeNd3Nb2(CuO5)4,-2.839071058897058
mp-1218619,Sr4CePr3Nb2(CuO5)4,-2.828499873382352
mp-1218731,Sr5CeNd3Cu4PbO18,-2.607201490703125
mp-1218546,Sr4CaYGa2(Cu2O7)2,-2.390712942884614
mp-1233851,MgCd4Cu4As4(HO5)4,-1.451283027297297
mp-1234626,MgCd4Cu4As4(HO5)4,-1.430213836756756
mp-1234648,MgCd4Cu4As4(HO5)4,-1.43914711054054
mp-1209382,Sr4Ca2Cu4Bi4IO16,-2.008814389354839
mp-1201527,Cu4Si4Pb4C4ClO28,-1.789869967555556
mp-1218622,Sr4CeSm3Nb2(CuO5)4,-2.851372314558824
mp-1218787,Sr4CeY3Cu4(RuO10)2,-2.496346877941176
mp-1227981,BaSr3Co2Cu4(SO)4,-1.5684210666666671
mp-1228289,Ba4Nd4Ti3Mn(Cu2O11)2,-2.888055393103448
mp-1228462,Ba3SrCo2Cu4(SO)4,-1.489942924999999
mp-1218684,Sr4CaYFeCu4PbO14,-2.173725461153845
mp-1218870,Sr4CaYCu4Bi2(PbO8)2,-2.147951237999999
mp-845,Cu5Sn4,0.024354069444443002
mp-1185860,MgCu5,-0.013281262500001001
mp-1225769,Cu5Ge2,0.073870745476191
mp-1225722,Cu5Ge2,0.07095628690476201
mp-11363,TbCu5,-0.20235930666666702
mp-1140,NdCu5,-0.16185717291666601
mp-1225307,DyCu5,-0.203688029166668
mp-1607,YbCu5,-0.20909298916666802
mp-1882,CaCu5,-0.11010331000000001
mp-2066,EuCu5,-0.10764859416666801
mp-227,SmCu5,-0.18046810166666602
mp-2462,PrCu5,-0.14531633361111002
mp-2613,LaCu5,-0.141133305833333
mp-2726,SrCu5,-0.035421975
mp-2797,YCu5,-0.192909463333334
mp-30585,HoCu5,-0.204240175833331
mp-636253,GdCu5,-0.165827425000001
mp-761,CeCu5,-0.10422689500000101
mp-1077262,TbCu5,-0.178495648333334
mp-30578,DyCu5,-0.18447929916666703
mp-30579,ErCu5,-0.19254898055555703
mp-30600,TmCu5,-0.197939671666667
mp-30603,ZrCu5,-0.11645303166666601
mp-510148,UCu5,0.10227604500000101
mp-580136,LuCu5,-0.202218766111111
mp-580364,HoCu5,-0.18825247249999902
mp-1368,Zn8Cu5,-0.10845411461538401
mp-568524,Cu5Sn4,0.031874359629627
mp-1045868,Cu5O7,-0.6796509970833321
mp-504746,Cu5As2,0.04714038142857
mp-752959,Sc5Cu5O13,-2.5317624313043483
mp-758556,Fe13Cu5O24,-1.322784941428572
mp-1191782,Nd5Cu5O13,-2.431858450978261
mp-753437,La5Cu5O13,-2.511112312608697
mp-1217645,Tb4Cu5P7,-0.903990570348959
mp-26796,Cu5P3O13,-1.7749282325680271
mp-1201464,CsCu5S3,-0.42050915982638803
mp-1224581,GdCu5Se4,-0.5487667941250011
mp-1224764,GdCu5Te4,-0.311342354083328
mp-1219156,Sm4Cu5P7,-0.926399639270831
mp-1224054,Ho4Cu5P7,-0.947995475270834
mp-1224964,Gd4Cu5P7,-0.9049560042708321
mp-1225338,Dy4Cu5P7,-0.9716792421927101
mp-1225610,Er4Cu5P7,-0.9287571935416671
mp-764801,Li2Cu5F12,-2.083202073859649
mp-541923,TlCu5Se3,-0.19588893302083102
mp-10914,K3Cu5O4,-1.092671264104166
mp-1197383,Cu5(PO6)2,-1.4793273265413531
mp-1199380,Cu5(PO6)2,-1.478835450488722
mp-16543,Cs3Cu5O4,-1.082163365122125
mp-27550,V2(CuO2)5,-1.477375675735294
mp-759535,Na3Cu5O4,-1.05382065305316
mp-770818,Li3Cu5O4,-1.151158445833332
mp-8198,Rb3Cu5O4,-1.083094576458333
mp-29457,Ba2Cu5F14,-2.496611849761905
mp-760980,FeCu5S4,-0.335958895999999
mp-640899,Ce2Zn2Cu5,-0.16053126277777702
mp-771644,Li3Cu5O8,-1.244906074999999
mp-28317,NaCu5S3,-0.32479382487547703
mp-1198320,Y2Cu5Ni12,-0.159969367894736
mp-542750,UCu5Sn,0.026195366071429003
mp-1105463,Cu5(AsO5)2,-1.204257190882353
mp-1188383,Cu5(AsO6)2,-1.128087337105262
mp-1189208,Cu5(PO6)2,-1.4734915231203
mp-1192555,Cu5(SO9)2,-0.7102626074
mp-25205,Cu5(Si2O7)2,-2.016450618695651
mp-27589,Cu5(PO5)2,-1.645172859369747
mp-695001,V6Cu5Te12,-0.09045005086956401
mp-760791,Li4Cu5F17,-2.145113005826898
mp-763652,Fe13Cu5O24,-1.407926506428571
mp-766417,Ba10Cu5O17,-2.2124789429687493
mp-757254,Mg2Cu5O7,-1.478569613690476
mp-760015,Li6Cu5F14,-2.323160888599999
mp-1223147,La4Cu5As8,-0.932953680588237
mp-1216222,YIn7Cu5,-0.132494393543949
mp-1216978,TmIn7Cu5,-0.093976754862631
mp-1217523,TbIn7Cu5,-0.137103968159334
mp-1219150,SmIn7Cu5,-0.150769974313181
mp-1220199,NdIn7Cu5,-0.15800412027471702
mp-1224226,HoIn7Cu5,-0.061262550128203
mp-1226099,DyIn7Cu5,-0.12726797623626002
mp-1227242,CeIn7Cu5,-0.13719331431317902
mp-1216156,Y2(CuNi)5,-0.26424692916666603
mp-1216214,Y2(CoCu)5,-0.044363438333333005
mp-1219221,Sm2(CoCu)5,-0.031200528333333002
mp-1219998,Pr2(CoCu)5,0.000475965694439
mp-1220419,Nd2(CoCu)5,-0.013598239215693001
mp-1220530,Nd2(CuAg)5,-0.086049079369376
mp-1223292,La2(CuNi)5,-0.24707103499999902
mp-1225966,Eu2(CuNi)5,-0.145232135833328
mp-1226892,Ce2(CoCu)5,-0.06791768416666501
mp-1226995,Ce2(CuNi)5,-0.227651372499998
mp-1103757,Cu5Sn2Se7,-0.347502579531249
mp-1103821,Cu5Sn2Te7,-0.183553526428572
mp-561033,CsCu5S3,-0.44645728829861103
mp-646125,Y5Mg8Cu5,-0.165815545277777
mp-1203883,LaInCu5,-0.21610746166666603
mp-675830,FeCu5S4,-0.35818472299999904
mp-758314,V16(CuO8)5,-2.063545233278688
mp-1200185,Cu5(Si2O7)2,-2.033301210978261
mp-1204432,Cu5(Si2O7)2,-1.9878686628260862
mp-1194241,CeCu5Ag,-0.122010115238094
mp-1207691,YCu5Sn,-0.24802483999999902
mp-1208066,TmCu5Sn,-0.24838652821428603
mp-1208378,TbCu5Sn,-0.25833811952380903
mp-1208657,UInCu5,-0.029700210119049
mp-1208682,SmCu5Sn,-0.25339797107142803
mp-1209648,PrCu5Sn,-0.24122653345238002
mp-1209796,PrInCu5,-0.22505670845238102
mp-1209987,NdCu5Sn,-0.24924953214285603
mp-1211431,LaCu5Sn,-0.260244518214286
mp-1211942,HoCu5Sn,-0.253338511071427
mp-1212701,GdCu5Sn,-0.266876946785714
mp-1212997,DyCu5Sn,-0.254939064880951
mp-1213224,ErCu5Sn,-0.25201375428571304
mp-1214036,CeInCu5,-0.21937157428571402
mp-12562,CeCu5Au,-0.220984353571429
mp-13413,ThCu5Sn,-0.232852196785713
mp-21670,ThInCu5,-0.20713471595238
mp-510328,NaCu5C6,0.5595579861206891
mp-637204,CeCu5Sn,-0.22254943928571103
mp-28467,Cs2Cu5Se4,-0.5795965455681801
mp-28737,K2(CuTe)5,-0.5431013664861081
mp-568046,Y5Mg13Cu5,-0.14098573434782502
mp-571074,Y5Mg16Cu5,-0.12345681384615301
mp-1214451,Ca4(CuO2)5,-1.9749942757894732
mp-753031,LiCu5F12,-1.939937189259258
mp-1201389,Rb4Cu5Cl9,-1.402041895416666
mp-29449,Rb4Cu5Cl9,-1.4188689261111112
mp-1217043,U2(CuNi)5,-0.054384788333331005
mp-556538,Na8(CuO2)5,-1.371228103088456
mp-690962,Nb24(CuS8)5,-1.279653317536231
mp-554231,Nd5Cu5O13,-2.435957004891304
mp-510418,Cu5Si2S7,-0.532797462120535
mp-1223235,La4Cu5Sb8,-0.7509813694117641
mp-1224673,Ho7Cu5Sb,-0.035444928846151004
mp-1227972,Ce4Cu5Sb8,-0.6473234488235271
mp-667638,Sr10Cu5Bi10O29,-2.028536526574075
mp-755868,LiCu5(PO4)2,-1.62921947766369
mp-773007,LiCu5(PO4)2,-1.622624018913689
mp-778739,LiCu5(PO4)2,-1.624150295476189
mp-779241,LiCu5(PO4)2,-1.609073589538689
mp-779276,LiCu5(PO4)2,-1.637978367351189
mp-779579,LiCu5(PO4)2,-1.612832262976189
mp-779641,LiCu5(PO4)2,-1.63524436547619
mp-988320,Sr10Cu5Bi10O29,-1.6276093216666672
mp-1194161,Cr2Cu5(P2O9)2,-2.037198523054188
mp-1215097,Ba11Cu5Bi8O29,-1.9818951717924531
mp-1214413,BaCu5AgP2,-0.29480853899470805
mp-1201155,Cu5Se4(ClO6)2,-1.077347323885869
mp-1202588,ZnCu5P2O15,-1.331805404751552
mp-1213314,Cu5As2(HO3)4,-1.203846420434782
mp-1226321,Cu5Sn(BO5)2,-1.598555919768518
mp-23119,Cu5Se2(ClO4)2,-1.027197614981617
mp-554163,Cu5Se2(ClO4)2,-1.035076477628676
mp-761187,Li4Cu5(P3O11)2,-2.174780005032174
mp-773172,Li7Mn12Cu5O32,-1.796859228723316
mp-1046281,Mg4Cu5(TeO6)3,-1.704547306
mp-1046533,Ca4Cu5(TeO6)3,-1.7873622788333332
mp-557936,Zn4Cu5(TeO6)3,-1.354497734833334
mp-722867,Ca3Cu5Si9O26,-2.742382492325582
mp-2217569,MgFeCu5S4,-0.35821104227272704
mp-2217662,MgFeCu5S4,-0.37755923499999905
mp-1200155,Cu5H14(SO9)2,-1.28272942698718
mp-1226698,Cu5H8(ClO5)2,-0.9586151372
mp-1229200,Ba10Cu5Hg5O21,-1.922231440670732
mp-1382564,Na2Cu5(Si2O7)2,0.9208322190896551
mp-21728,TlV3Cu5O13,-1.583983975378788
mp-2229761,MgCu5(PO5)2,-1.683184544682538
mp-26795,LiCu5P3O13,-1.8645421901028132
mp-554014,Li2Cu5(Si2O7)2,-2.171691598666667
mp-556753,V2Cu5(HO3)4,-1.404490512391304
mp-559620,Cu5Bi2(B2O7)2,-1.822408794266666
mp-563041,KV3Cu5O13,-1.674848186238636
mp-573024,Na2Cu5(Si2O7)2,-2.152515518910344
mp-759265,Li2Cu5(PO4)4,-1.9794897805643732
mp-1224412,K3Sm4(CuTe2)5,-1.127595314928029
mp-1224443,K3Er4(CuTe2)5,-1.108269790609847
mp-1225822,Cu5SeCl5O4,-0.9693743918229171
mp-1177187,Li5Cu5(TeO6)2,-1.504723225416667
mp-1203217,Zn4Cu5(TeO6)3,-1.3410272851666671
mp-652781,Sr10Cu5Bi10O29,-2.0155742458333332
mp-756817,Li5Cu5(SbO6)2,-1.6245778019444441
mp-756836,Li5Cr2Cu5O12,-1.463915002777777
mp-756927,Li5Nb2Cu5O12,-1.902947469444444
mp-764735,Li5Mn2Cu5O12,-1.5662035571886972
mp-770470,Li5Cu5(SnO6)2,-1.5799750686111111
mp-770793,Li5Ti2Cu5O12,-1.9491417397222222
mp-770841,Li5Cu5(NiO6)2,-1.285261249027777
mp-771177,Li5Co2Cu5O12,-1.382192192361111
mp-771192,Li5Fe2Cu5O12,-1.439193129444444
mp-641710,Cu5Si(SbO6)2,-1.5477487692499992
mp-1176754,LiCu5(PO4)2,-1.639144888913689
mp-778661,LiCu5(PO4)2,-1.63259851610119
mp-709325,Cu5Si4(HO7)2,-1.9773279016
mp-1105890,Lu3Tl2Cu5Se8,-1.104733880856482
mp-1189719,Er3Tl2Cu5S8,-1.2508168942592581
mp-772817,Ba4Y2Cu5O14,-2.2017784328
mp-558557,BaLa4Cu5O12,-2.443297786363636
mp-1076491,Ba4Sr4Co3Cu5O24,-1.7770716985
mp-1076600,Ba3Sr5Co3Cu5O24,-1.787963027
mp-1076881,Ba3Sr5Co3(CuO4)5,-1.9407788453472221
mp-1076896,Ba4Sr4Co3(CuO4)5,-1.9344337415277781
mp-1099742,Ba2Sr6Co3(CuO4)5,-1.9474289870138892
mp-1194684,K2Cu5TeS3O19,-1.462655032788888
mp-1194986,Na2Cu5TeS3O19,-1.452066739064176
mp-1218939,Sr10Cu5Mo4WO30,-2.385276411
mp-1228213,Ba4Y2FeCu5O14,-2.223842468846153
mp-707879,K2Cu5H8(Cl4O3)2,-1.215630823603448
mp-1179399,U2Cu5Pb2(SeO5)6,-1.429842076312499
mp-1218943,Sr10Cu5Mo3(WO15)2,-2.4053413858
mp-1348763,Sr10Cu5Mo3(WO15)2,1.6535520842
mp-745163,Mn2Cu5P4(HO9)2,-1.936629756352693
mp-1229126,Ba2Ca4TlCu5O13,-2.057229390333333
mp-1076264,Ba2Sr6Co3Cu5O24,-1.7958165092499998
mp-1228291,Ba4Y2Cu5PdO14,-2.164897930384615
mp-532816,Ba5Sr2Nd8(CuO5)5,-2.8683313913333333
mp-695252,Sr2La14Zn3Cu5O32,-2.969849130178572
mp-1196410,NaCu5Se2Cl3O8,-1.130856243740357
mp-1228152,Ba4Y2Cu5PdO14,-2.162503699230768
mp-757073,Ba4LiY2Cu5O14,-2.258967747435897
mp-1218927,Sr10Cu5Mo(W2O15)2,-2.449832394
mp-1210396,NaCu5Sb2As6(H9O17)2,-1.4115528719527162
mp-1218790,Sr4Y2GaCu5(PbO4)4,-2.114566871484374
mp-1945,NdCu6,-0.12805910464285802
mp-30590,LaCu6,-0.114437729999999
mp-567201,PrCu6,-0.11435060523809501
mp-581942,CeCu6,-0.106328285357142
mp-1233,Cu6Sn5,0.023065760909089003
mp-1192935,PuCu6,0.04937924089285901
mp-1193079,NdCu6,-0.12807313642857202
mp-1194708,GdCu6,-0.13873782821428501
mp-12834,ThCu6,-0.140867712857141
mp-21708,CeCu6,-0.10618074714285501
mp-30698,PrCu6,-0.11400013630952101
mp-30699,SmCu6,-0.142153082499999
mp-636256,LaCu6,-0.125284451785717
mp-1207322,Cu6O,1.186209799285714
mp-1178375,Cu6OF11,-1.7021083633333332
mp-2219134,Mg(CuS)6,-0.547029779999999
mp-28717,Cu6As4S9,-0.259026208963816
mp-675590,Cu6BiS6,-0.24185209084936102
mp-752933,Cu6OF11,-1.7017564461111112
mp-754948,Cu6OF11,-1.701878467222223
mp-755878,Cu6OF11,-1.703468717222223
mp-760939,Cu6OF11,-1.699421628888889
mp-779105,Cu6OF11,-1.6983018805555572
mp-849387,Cu6OF11,-1.701870737777779
mp-662567,Nd12Cu6O25,-2.881803220813953
mp-772159,La6Cu6O17,-2.459550606034483
mp-1225700,Cu6AuN2,0.16091161444444402
mp-1225725,Cu6PdN2,0.111196786190475
mp-1247881,Ba(Cu3P)2,2.861549736746031
mp-505215,Ba(Cu3As)2,-0.270095388333334
mp-29917,Ca5(CuO2)6,-1.990612604999999
mp-1103514,Eu2Cu6P5,-0.503538535631867
mp-1104000,Sr2Cu6P5,-0.44560612332417504
mp-28660,Ca2Cu6P5,-0.5332504461446881
mp-557929,Tl(Cu3S2)2,-0.35612274666666704
mp-573073,Cs7Cu6F19,-2.375711369999999
mp-766360,La6Cu6O17,-2.451357166379311
mp-5511,Cu6Mo5O18,-1.5119395125862072
mp-2219131,Mg(CuS)6,-0.5470405353846141
mp-2227432,Mg(CuS)6,-0.46699206307692204
mp-1216918,U(GaCu3)2,0.018046452777778003
mp-1225743,Cu6GeSb,0.14339096812500002
mp-1338483,Y4(Cu2O5)3,-1.895611298
mp-762063,Na4Cu6O5,-1.063520374034483
mp-758382,Li7(CuO2)6,-1.481425315333333
mp-30910,Mg2Ga5Cu6,-0.180746144166667
mp-31194,Li13(Ga7Cu2)3,-0.32763215691666603
mp-1147615,Nb(Cu3O4)2,-1.313880645999999
mp-1147639,Cd(Cu3O4)2,-0.9923819633333331
mp-1147658,Cu6SnO8,-1.161771515666666
mp-1147668,Cu6NiO6,-0.714042245384616
mp-1147677,Ca(Cu3O4)2,-1.270262681333333
mp-1147679,In(Cu3O4)2,-1.128273857777778
mp-1147689,Ta(Cu3O4)2,-1.378206894488889
mp-22037,Cu6PbO8,-0.7822285919999991
mp-559633,Cu6PbO8,-1.037421847333332