material_id,formula,formation_energy_per_atom
mp-12903,YAgTe2,-1.125885941249998
mp-12904,HoAgTe2,-1.112067171249997
mp-3551,TbAgTe2,-1.128376059166666
mp-4024,DyAgTe2,-1.120247139166664
mp-1223798,InAgTe2,-0.36586716375000305
mp-1224790,GaAgTe2,-0.314551219999998
mp-1224792,GaAgSe2,-0.5064652057812521
mp-1225364,Eu2Ga7Ag,-0.49342352450000204
mp-1227351,Ca2Ga7Ag,-0.422191242499999
mp-1228403,Ba2Ga7Ag,-0.40934529541666603
mp-10006,TlAgTe2,-0.262565704583334
mp-1103169,NaAgO,-1.036315072681991
mp-1218984,SmGa3Ag,-0.527149344999998
mp-1225128,EuGa3Ag,-0.46893803000000306
mp-1226621,CeGa3Ag,-0.419328692833332
mp-1096845,BaAgO2,-1.716207567916666
mp-1178345,EuAgO2,-2.121058754166654
mp-1183002,AgBiSe2,0.282702930052082
mp-1210284,Nb13AgO33,-2.6533697681648922
mp-1215988,YGaAg,-0.48289060138888706
mp-1216629,TmGaAg,-0.5259411300000021
mp-1217528,TbGaAg,-0.479719860277774
mp-1222321,LuGaAg,-0.509260855666658
mp-1223950,HoGaAg,-0.469180168055552
mp-1225220,EuGaAg,-0.45763044750000303
mp-1225230,EuCdAg,-0.342713193333333
mp-1225251,EuAgSn,-0.528586703333331
mp-1225254,EuAgGe,-0.5283396078571581
mp-1225546,ErGaAg,-0.47164185972222106
mp-1225625,DyGaAg,-0.47414641694443804
mp-1226622,CeGaAg,-0.37670679638888704
mp-1227020,CaZnAg,-0.314119315555553
mp-1227350,CaAgGe,-0.48286355972222306
mp-1232268,Cr2AgS4,-0.796637941666665
mp-1247248,MnAgN,0.06477996482519101
mp-1277880,NiAgO2,-0.788803314166665
mp-23474,AgBi3S5,-0.372202277673611
mp-29607,Ag(TeMo)6,-0.26484184576923103
mp-546111,Cr3AgO8,-1.641716069305554
mp-5470,AgPS3,-0.23250120628273602
mp-558796,Ag(Bi2S3)3,-0.359322325279947
mp-634855,InAgS2,-0.431881906406252
mp-675920,Ti6AgS12,-1.5291136653508821
mp-752549,LiAgF2,-2.125241082916668
mp-754326,NaAgO2,-1.003201455761493
mp-760582,Li2AgF3,-2.4059618055555543
mp-861245,LiAgF4,-1.867397758611111
mp-996963,CdAgO2,-0.868751446666665
mp-996970,AgBiO2,-1.123922422916666
mp-996992,LiAgO2,-1.081705696249999
mp-996995,MnAgO2,-1.431450102399425
mp-997007,AgPtO2,-0.651536824166665
mp-997017,AgClO2,-0.242563136666666
mp-997019,AgPbO2,-0.994731772916665
mp-997086,SrAgO2,-1.8261176741666652
mp-997101,AgO2F,-0.6465347304166661
mp-1191396,MgAgSb,-0.268053336388887
mp-22993,AgClO4,-0.414067270277776
mp-1096959,FeAgSe2,-0.300996155338541
mp-19833,InAgS2,-0.5596083526562491
mp-20554,InAgSe2,-0.533225844531248
mp-22386,InAgTe2,-0.37611397750000103
mp-4899,GaAgTe2,-0.34213799249999904
mp-5058,FeAgS2,-0.40458418416666503
mp-5342,GaAgS2,-0.620011173906249
mp-5518,GaAgSe2,-0.5399828320312511
mp-758604,LiAgF2,-2.102235912916667
mp-10102,KAgC2,0.35163802520312604
mp-1025220,SiAgPt5,-0.30934916476191304
mp-1025385,AgPPt5,-0.210575465068034
mp-1078079,AgPPd5,-0.297488465187073
mp-1206111,Y2AgSb3,2.153722007499991
mp-1206336,La2AgBi3,1.9753216222222099
mp-1206388,NaAgC2,0.425464070431033
mp-1206390,Sm2AgSb3,2.077063528749998
mp-1206426,Pr2AgSb3,2.096712925833334
mp-1206475,La2AgSb3,1.958560259166655
mp-1206578,InAgI2,-0.30499294458333104
mp-1206696,Er2AgSb3,2.215828888055556
mp-1206726,Tb2AgSb3,2.180301509166667
mp-1206934,Dy2AgSb3,2.197952670833336
mp-1207047,Tm2AgSb3,2.135832439444442
mp-1207136,RbAgC2,0.36828596020833304
mp-1207311,Nd2AgSb3,2.042311249444438
mp-1207314,Ho2AgSb3,2.212114391388891
mp-1207354,La2AgAs3,2.029051467638888
mp-1212026,La2AgSb3,1.9656058058333241
mp-1215344,Zr8AgPd3,-0.407003997083336
mp-1215421,YbAgS2,-1.418045593906253
mp-1215836,Yb2AgPd,-0.6821148812499971
mp-1216001,YAgSe2,-1.321025100781252
mp-1216005,YAgSn2,-0.43870025041666505
mp-1216746,Tm2InAg,-0.47936551625000506
mp-1217615,TbAgSn2,-0.448921397083331
mp-1217670,Tb2ZnAg,-0.336379846249997
mp-1217680,Tb2AgPd,-0.582621848749998
mp-1217699,Tb2InAg,-0.384315172916664
mp-1219894,Pr2InAg,-0.355770072916666
mp-1222144,Mg2AgPd,-0.48058370541666506
mp-1222295,LuAgS2,-1.395382683072917
mp-1223782,InAgTe2,-0.24940606250000003
mp-1223789,HoAgSn2,-0.42316676416666404
mp-1223795,HoAgSe2,-1.324134220338539
mp-1223836,InAgSe2,-0.39209137453124704
mp-1223918,Ho2InAg,-0.38385848458332905
mp-1224309,HfGa2Ag,-0.325649254166663
mp-1224331,Hf4AgPd,-0.32064263750000005
mp-1224681,GdAgSn2,-0.42885501874999904
mp-1224733,Gd2ZnAg,-0.29799638499999703
mp-1224988,Gd2InAg,-0.43160530374999606
mp-1225262,DyAgSn2,-0.435788158333332
mp-1225323,Dy2InAg,-0.38360144291666204
mp-1225486,ErAgSe2,-1.32111451408854
mp-1225499,ErAgS2,-1.454938661666665
mp-1225505,Er2InAg,-0.39351487958333004
mp-1225506,ErAgSn2,-0.414122677916665
mp-1227262,Ce2InAg,-0.17612505458333003
mp-1229003,AgSbTe2,0.009187651250001
mp-1229005,AgSnS2,-0.273756720572913
mp-1229006,AgSnTe2,-0.142879760729165
mp-1229008,AgSbSe2,-0.162979899531251
mp-1229010,AgSbS2,-0.135486868906248
mp-1229025,AgSbTe2,-0.14769851249999802
mp-1229085,AgBiTe2,-0.09774959812500501
mp-1229087,AgBiSe2,-0.21281629744791802
mp-12359,AgSbTe2,-0.251622658749998
mp-1247932,AgSbTe2,0.6466579608928581
mp-2014274,SrAgO2,-1.839856336666665
mp-30341,TiAgHg2,0.08807211354166301
mp-985828,AgBiS2,-0.19948709932291903
mp-996990,BaAgO2,-1.7506179754166662
mp-997030,CaAgO2,-1.8718921604166652
mp-1220387,NbAgO3,-2.165201552333332
mp-1018797,MgAgSb,-0.25799857388888703
mp-1078739,YAgSb2,-0.6974421150000011
mp-1079478,PrAgSb2,-0.778551152083333
mp-10816,NdAgAs2,-0.890194894375
mp-10965,DyAgSb2,-0.70119505083333
mp-1205313,SmAgAs2,-0.887384916249999
mp-1206043,TbAgAs2,-0.7467626983333331
mp-16236,KAgSe,-0.811976038753471
mp-20271,LaAgSb2,-0.8499882124999971
mp-20384,CeAgAs2,-0.7708415404166661
mp-510280,CeAgSb2,-0.755950821666664
mp-567558,CsAgCl2,-1.397385576249998
mp-571100,CsAgBr2,-1.351501942830461
mp-760804,Li2AgF4,-2.315456425833336
mp-762244,Li2AgF4,-2.289630445119051
mp-10101,CsAgC2,0.366390490919539
mp-1247876,AgSbTe2,-0.160072231874998
mp-1207868,UAgF6,-3.173063796249998
mp-29993,TaAgF6,-2.9137138465416683
mp-997394,NbAgF6,-2.719586547499998
mp-765413,Li2AgF6,-1.966393560370369
mp-1120758,La2AgO4,-2.6386737830952383
mp-13649,Cs2AgF4,-2.282353032142857
mp-28610,CsAgCl3,-1.261134702499998
mp-3074,KAgO,-1.027251272138884
mp-6983,NaAgO,-1.036896748515321
mp-772290,LiAgO,-1.254481989166664
mp-8603,RbAgO,-0.9997084205555551
mp-8666,CsAgO,-0.9897648946072791
mp-1104293,K2AgF4,-2.346519228023809
mp-1104717,Na2AgF4,-2.270849716428571
mp-1182953,AgCO2,-1.080104572916666
mp-1183033,AgSO4,-1.336775412465277
mp-1191552,Fe2AgS3,-0.505374525277776
mp-1199508,AgSO4,-1.327278339965277
mp-1212706,FeAgBr4,-0.8140476123611111
mp-1323922,CaAgF5,-2.439639574523805
mp-1369675,MgAgF5,-2.2766903580952382
mp-1372040,ZnAgF5,-1.6655329866666682
mp-17588,AgRuF7,-1.715751211388889
mp-18702,AgPO3,-1.958048157761911
mp-2767285,K2AgF4,-2.33620498445238
mp-29718,AgW3Br7,-0.817787528106059
mp-5282,AgCO2,-1.105057804791666
mp-558637,AgTeO3,-1.125950917416666
mp-559257,AgTeO3,-1.146425267166666
mp-608357,MnAgO4,-0.8889225945162831
mp-650442,Tl3AgTe2,-0.395670876250001
mp-655140,MnAgO4,-0.21475427868294902
mp-732005,Ag(NO2)3,-0.095571144916667
mp-752837,LiAgF3,-2.012358717333335
mp-753383,LiAgF4,-1.840672674861121
mp-755171,CrAgO4,-0.7949114098611111
mp-756139,AgBrO4,-0.197513051111111
mp-756821,LiAgF3,-1.9897078473333352
mp-758554,Li2AgF5,-2.11973193260417
mp-761914,LiAgF4,-1.849264746111111
mp-765191,LiAgF4,-1.812004084027787
mp-765481,Li2AgF5,-2.16729493135417
mp-771241,Ta3AgO8,-2.944382028847221
mp-775762,AgPO3,-1.912603329261903
mp-776199,AgClO3,-0.396924448333332
mp-777775,Ag(H7O4)2,-1.137662682137681
mp-849308,CrAgO4,-1.167400311527778
mp-996962,LiAgO2,-1.104204954999999
mp-997001,AgHgO2,-0.5038862847916681
mp-1197167,Nd6Fe13Ag,-0.017849353333332003
mp-27801,TlAgI2,-0.634143947500001
mp-3868,Pr6Fe13Ag,-0.0009152730833330001
mp-561920,CsAgF3,-2.063023354
mp-7386,NaAgF4,-1.873112819999999
mp-7387,KAgF4,-2.027953733152777
mp-752768,LiAgF4,-1.8420902394444552
mp-7767,RbAgF3,-2.128560911833334
mp-997100,SrAgO2,-1.8154016966666662
mp-1080714,Li2AgSn2,-0.309467490666665
mp-1173060,AgBiS2,-0.26139601557292
mp-1173065,LuAgS2,-1.513448824322914
mp-1208337,TcAgO2,-0.622026011041666
mp-1209150,ReAgO2,-0.49227567791666604
mp-1214931,AgIO2,-0.29918473979166604
mp-33618,AgBiSe2,-0.270413226197916
mp-33683,AgSbSe2,-0.207029625781252
mp-33882,ErAgSe2,-1.3927107053385401
mp-34371,AgSbS2,-0.18941189890624802
mp-35071,InAgSe2,-0.423580313281249
mp-36029,ErAgS2,-1.547133880416665
mp-753751,LiAgF2,-2.048525999166667
mp-7962,YbAgS2,-1.524217567656251
mp-936760,HoAgSe2,-1.392483692838539
mp-937836,YAgSe2,-1.384038855781252
mp-1220427,Nb6AgSe8,-0.8459960979444191
mp-1103642,Ag(Mo3Se4)2,-0.523919851944447
mp-1178556,AgPbO3,-0.845433529333332
mp-1178563,AgAsO3,-1.269711258833334
mp-1203027,Ga40AgMo8,-0.14432785350340102
mp-1217143,Ti3AgS6,-1.449190208666665
mp-13740,AgAsS2,-0.157485410156247
mp-2017405,AgRhF6,-1.554154335000001
mp-23548,AgBiO3,-1.003011011333333
mp-29012,Tl2AgI3,-0.70613888777778
mp-35109,Ag(Mo3S4)2,-0.710917151944446
mp-545999,AgSbO3,-1.427711510333333
mp-753992,CoAgO3,-0.731104968333333
mp-754229,MnAgO3,-1.188434382919541
mp-760781,Li2AgF4,-2.331253538452383
mp-998537,ZnAgF3,-1.974976021999999
mp-1178815,VAgO3,-1.743254703833332
mp-1196324,AgSO4,-1.370615100486111
mp-1401831,MgAgF5,-2.288201064523809
mp-3922,AgSbS2,-0.250111398906248
mp-542609,AgAsS2,-0.14844823161458
mp-621612,AgPb2Br5,-1.099094383333332
mp-624691,VAgO3,-1.731810440833332
mp-654937,Ag(CO)2,-0.6433775220833331
mp-675111,CeAgP2,-0.558176915863093
mp-752525,LiAgF2,-2.063166795416668
mp-752605,LiAgF3,-2.011502846833335
mp-752700,CoAgO3,-0.36156032533333204
mp-758054,LiAgF4,-1.838479852777788
mp-760580,Li2AgF3,-2.423532337222221
mp-760778,Li2AgF5,-2.167326605416669
mp-761269,Li2AgF4,-2.349864717976193
mp-765559,LiAgF4,-1.8778279977777772
mp-775767,AgAsO3,-1.232443394333333
mp-997016,AgClO2,-0.256371372916666
mp-997048,AgBrO2,-0.198984971666666
mp-997102,KAgO2,-1.004760868479165
mp-997108,RbAgO2,-0.997612563541665
mp-1182983,AgC2N3,0.933821528888887
mp-1182994,AgC2N3,0.7734071722222221
mp-1245572,Cr2AgN3,-0.199039177638888
mp-1245583,AgRu2N3,0.346734019722223
mp-1245938,V2AgN3,-0.6585786826388881
mp-1246189,Co2AgN3,0.42186293361111404
mp-1246590,AgGe2N3,0.119737528611112
mp-1247312,Si2AgN3,-0.6376509680555521
mp-616521,AgC2N3,0.23179132777777603
mp-1206764,CaAgSn,-0.52204260222222
mp-1206851,LuAgTe2,-1.055462540416667
mp-1215907,YAgTe2,-1.1087603225000011
mp-1216072,Y2Ga3Ag,-0.5705049506944461
mp-1216570,TmAgTe2,-1.035830645
mp-1220696,Nb2AgS4,-1.1589505788095211
mp-1223835,InAgS2,-0.462137348906251
mp-1223840,HoAgTe2,-1.091136189999997
mp-1225301,DyAgTe2,-1.101716337916663
mp-1225547,ErAgTe2,-1.085883778749998
mp-675371,InAgTe2,-0.10046075374999901
mp-676113,InAgS2,-0.35166331640625004
mp-1018020,NiAgSe2,-0.20186144421875302
mp-1018084,CrAgTe2,-0.346476566249998
mp-1021670,TiAgSe2,-0.943584602421874
mp-1065204,CrAgS2,-0.5291175691666651
mp-1094026,Y3AgO5,-2.998668174074074
mp-1094066,ScAgS2,-1.407028206406249
mp-1096795,YAgS2,-1.542876661666666
mp-1096798,ScAgO2,-2.515877954166665
mp-1096875,CrAgO2,-1.592255186041666
mp-1096969,FeAgS2,-0.44698092666666506
mp-1096972,GaAgS2,-0.44176934390625
mp-1096976,GaAgO2,-1.497369844791666
mp-1096980,FeAgO2,-1.055370417916666
mp-1097000,InAgS2,-0.47655113640625
mp-1097001,InAgO2,-1.281270904583332
mp-1178561,AgClO3,-0.352711819333332
mp-1178562,AgBrO3,-0.28503579633333204
mp-1219201,Sm2Co16Ag,0.009642960438595001
mp-1220596,Nb4AgS8,-1.239466291666664
mp-1223807,InAgSe2,-0.46240121703124903
mp-1400626,TlAgF3,-1.608294547875004
mp-3532,CrAgSe2,-0.596073166588541
mp-4182,CrAgS2,-0.7243781191666641
mp-560676,CrAgS2,-0.596659049166665
mp-570708,CrAgSe2,-0.42758319158854
mp-8196,AgNO3,-0.649492202333333
mp-9519,AgCN,0.344193296944441
mp-976804,NiAgTe2,-0.057742946666664005
mp-552185,AgNO3,-0.6806635453333341
mp-759066,LiAgF3,-2.002638009833334
mp-768308,LaAgO3,-2.088594065333333
mp-998553,KAgBr3,-1.178872599783332
mp-998608,TlAgBr3,-0.8205342860000011
mp-998748,TlAgCl3,-1.010421214000001
mp-998750,KAgCl3,-1.188738291249998
mp-1097028,GdAgSe2,-1.371408310781245
mp-1172905,AgBiS2,-0.29191600432291404
mp-1182952,AgBiTe2,-0.188120816458337
mp-1215605,YbAgSn,-0.26608937000000304
mp-1215789,YbAgPb,-0.196255393333331
mp-1217625,TbAgSn,-0.30512077611110905
mp-1217770,Ta2AgS4,-1.118980538047617
mp-1219082,SmAgSn,-0.33394178888888804
mp-1220222,NdAgSn,-0.345547113055554
mp-1220353,NdAgPb,-0.356030905833331
mp-1223033,LaAgSn,-0.40062950555555504
mp-1223038,LaAgPb,-0.27467745722222103
mp-1223948,HoAgSn,-0.27752731222221905
mp-1224997,FeAgTe2,-0.15548300374999902
mp-1225317,DyAgSn,-0.291640759444441
mp-1225471,DyAgPb,-0.17896152111110702
mp-1225590,ErAgSn,-0.270148160555553
mp-1225605,ErAgPb,-0.15192177222222
mp-1226708,CeAgSn,-0.300439888888886
mp-1227171,CeAgPb,0.21393636444444702
mp-12908,ScAgSe2,-1.274694044531251
mp-12953,TmAgTe2,-1.043152141250004
mp-29659,FeAgTe2,-0.042640964583332004
mp-570549,AgBiTe2,-0.10886412145833901
mp-754466,Li2AgF3,-2.464303996388886
mp-1007685,InAgSe2,-0.43234455703125
mp-1018025,LuAgO2,-2.708882957083331
mp-1018033,AgRhO2,-0.8739557429166651
mp-1096971,GaAgO2,-1.582296671041656
mp-1176792,LiAgF2,-2.132343665416668
mp-1215482,YbAgS2,-1.51291467640625
mp-1216540,TmAgS2,-1.497611406562502
mp-1217695,Tb2Mg5Ag,-0.064554096249999
mp-1223792,InAgTe2,-0.258810664999998
mp-1225516,ErAgS2,-1.529725259166665
mp-1229000,AgSbSe2,-0.21189562828125103
mp-1229011,AgSnSe2,-0.33394916828124704
mp-1229019,AgSbS2,-0.192763776406248
mp-12360,AgSbTe2,-0.291437181249998
mp-1245738,Ti2AgN3,-1.169998822638889
mp-1246060,Zr2AgN3,-1.356448140555553
mp-1247477,AgSbN2,0.335179069166667
mp-13166,YbAgO2,-2.604032006874998
mp-19069,NiAgO2,-0.799491137916665
mp-19225,FeAgO2,-1.219109076041666
mp-19378,CrAgO2,-1.6847351029166662
mp-20162,InAgS2,-0.46991981390624904
mp-22660,InAgO2,-1.392166444583322
mp-27916,AgBiSe2,-0.32030861244791703
mp-29656,AgBiTe2,-0.18614019312500502
mp-29678,AgBiS2,-0.28982440932292103
mp-4483,AgAsSe2,-0.30125162846354103
mp-753001,CoAgO2,-0.9306287604166661
mp-753226,SmAgO2,-2.539877864166665
mp-753260,LaAgO2,-2.568305550416656
mp-758251,Li5AgF8,-2.5906000959523823
mp-973185,ScAgO2,-2.624058809166653
mp-996982,AgBiO2,-1.105013017916666
mp-997160,MnAgO2,-1.385979792399425
mp-2763542,TlAgCl3,-0.769443778499999
mp-753176,AgCO3,-1.233628131333331
mp-780275,AgBO3,-1.501129671166666
mp-9890,TaAgO3,-2.405688931799999
mp-998418,MgAgF3,-2.763583444333332
mp-1105028,Ag(MoSe)3,-0.39902907174107205
mp-1237898,Nb3AgTe4,-0.28115377479166603
mp-760151,LiAgF3,-2.006259514833333
mp-779706,AgGeO3,-1.331455818833333
mp-1369676,YAgO3,-2.153766481666667
mp-11215,CeAgGe,-0.5015556088888871
mp-1206286,PrAgGe,-0.5995956611111091
mp-1245446,AgSnN,0.321611973333335
mp-12505,LuAgSn,-0.5783277172222221
mp-13406,LaAgPb,-0.49928999722222406
mp-13407,CeAgPb,-0.348359378888885
mp-19712,PrAgPb,-0.45304510277777205
mp-20568,LaAgGe,-0.7271804850000001
mp-20880,NdAgPb,-0.5761480291666641
mp-21198,DyAgSn,-0.586136342777778
mp-31420,CeAgSn,-0.46128081388888603
mp-31421,PrAgSn,-0.613051211111108
mp-31422,TbAgSn,-0.599214716111108
mp-31447,TbAgPb,-0.412660744444443
mp-31449,HoAgPb,-0.38020041888888
mp-4311,HoAgSn,-0.57311995222222
mp-4808,NdAgSn,-0.618603359722223
mp-510687,DyAgPb,-0.395864592777774
mp-568664,CaAgBi,-0.6397542166666641
mp-569724,ErAgSn,-0.565319087222219
mp-570855,SmAgPb,-0.562348181666664
mp-5729,YAgSn,-0.5947807188888861
mp-6917,TmAgSn,-0.5470716238888871
mp-11069,YbAgSn,-0.5185600477777791
mp-1205978,CaAgPb,-0.39159442388888704
mp-1206746,PrSiAg,-0.448932437777777
mp-1217616,TbAgSn,-0.536738531111109
mp-1217617,TbAgSn,-0.15274408111110901
mp-1219086,SmCo4Ag,0.082189587222221
mp-1222760,LaSiAg,-0.5498519591666521
mp-1223806,HoAgSn,-0.509126483888885
mp-1225142,EuSiAg,-0.33514202888889005
mp-1225450,ErSiAg,-0.459426570555554
mp-1225517,DySiAg,-0.46774463111110903
mp-1226539,CeSiAg,-0.38582845388888704
mp-1245568,CoAgN,0.598512787777778
mp-1245648,ZnAgN,0.21694515877193202
mp-1246693,MnAgN,0.147068101491858
mp-1246949,CaAgN,-0.262764067326389
mp-2044367,CaAgSn,-0.564815498333331
mp-571454,LiAgC2,0.397159303541659
mp-10079,TbAgGe,-0.413653852222221
mp-1078772,TmAgGe,-0.6274370800000051
mp-1078820,DyMgAg,-0.253100688333331
mp-1079093,TmSiAg,-0.6339032611111131
mp-1079097,ErMgAg,-0.253396792222218
mp-1079690,GdSiAg,-0.55599154722222
mp-1079756,PrMgAg,-0.23976237388888602
mp-1079794,LuSiAg,-0.613306637777775
mp-1079843,LaMgAg,-0.26234911388889004
mp-1080424,ScAgGe,-0.601758970000001
mp-1080547,CeMgAg,-0.117153054444442
mp-1084844,ErSiAg,-0.5665832861111101
mp-1091398,YSiAg,-0.643740774444441
mp-1095130,DySiAg,-0.566687099999997
mp-1095154,SmMgAg,-0.25206655611111
mp-1205828,YAgGe,-0.723900040555555
mp-1205829,TbMgAg,-0.258791063333334
mp-1205940,HoMgAg,-0.25333849611110704
mp-1205963,LuAgGe,-0.6070375399999991
mp-1206263,TmMgAg,-0.251416111111114
mp-1206436,SmAgGe,-0.645727611666667
mp-1208964,ScAgSn,-0.49049897611110704
mp-1209825,NdMgAg,-0.24759409472222202
mp-12277,CaAgP,-0.8588143732142851
mp-13265,ErAgSn,-0.544858579444438
mp-16241,YbSiAg,-0.631385557222223
mp-16745,ErAgPb,-0.34986318055555005
mp-16747,LuAgPb,-0.295174541666665
mp-20522,TmAgPb,-0.328322975000002
mp-21045,DyAgGe,-0.40921597388888703
mp-21505,YAgPb,-0.501053014999999
mp-2990,TmAgSn,-0.527772531111109
mp-30737,YMgAg,-0.26388169111111004
mp-3608,LuAgSn,-0.560370245000001
mp-5615,CaAgAs,-0.8982986191666661
mp-567574,DyAgGe,-0.647566033888886
mp-570026,ErAgGe,-0.639566118888885
mp-7093,HoAgGe,-0.404483169444442
mp-9341,GdAgGe,-0.646289025555554
mp-9343,ErAgGe,-0.405831625555553
mp-972524,SmSiAg,-0.6166301522222191
mp-9776,YbAgGe,-0.6936264977777751
mp-1105973,ScAgSe2,-1.25874689140625
mp-1106005,YbAgSe2,-1.399850340781249
mp-1181462,DyAgSe2,-1.436800769505207
mp-1188559,YAgSe2,-1.42491480703125
mp-1188652,TmAgSe2,-1.4045783520312511
mp-1189356,LuAgSe2,-1.385930871197914
mp-12955,HoAgSe2,-1.4328078040885401
mp-18105,CsAgSe4,-0.712835215532804
mp-18585,RbAgSe4,-0.6960230001736081
mp-2206902,DyAgS2,-1.546395080781247
mp-2209741,YAgS2,-1.545389597343751
mp-2210265,TbAgS2,-1.5487409829687482
mp-2754954,GdAgS2,-1.234247366718747
mp-2755672,ErAgS2,-1.536573607864582
mp-2755875,TmAgS2,-1.537189252968751
mp-4044,ErAgSe2,-1.432454579713541
mp-553907,Rb3AgO2,-1.127836472881943
mp-572510,K3AgO2,-1.177506311194443
mp-669466,AgNO3,-0.6756339573333331
mp-759658,LiAgF2,-2.102141085416667
mp-769295,AgH8O5,-1.081010833154761
mp-769296,AgH9O5,-1.1049056653611111
mp-1190337,AgN4O3,1.5572979347916651
mp-28043,Tl3AgI5,-0.6947896671296311
mp-1106117,La5AgPb3,-0.541754915185183
mp-1106401,Ce5AgPb3,-0.36092421518518003
mp-1190110,Zr5AgSb3,-0.693028715185184
mp-1190397,Zr5In3Ag,-0.313219055000003
mp-1205473,Zr5AgPb3,-0.344672179444444
mp-1208279,Ti5AgSn3,-0.32785338444445
mp-1209345,Pr5AgSn3,-0.632313126111112
mp-1213880,Ce5AgSn3,-0.5048282112962941
mp-27944,TlAgSe2,-0.014843113489575002
mp-10667,SrAgP,-0.86540930765873
mp-1071876,CaAgBi,-0.594120746666661
mp-1078847,CoAgO2,-0.367960279166666
mp-11020,GaAgO2,-1.582355479791656
mp-11022,ScAgO2,-2.624149660416652
mp-1106049,CoAgO2,-0.928280394791666
mp-11213,BaAgSb,-0.40834720555555404
mp-11217,SrAgSb,-0.474327903888887
mp-1205316,BaAgSb,-0.8450495705555541
mp-1205318,BaAgBi,-0.654724600555557
mp-18966,FeAgO2,-1.213149317916666
mp-19178,CoAgO2,-1.005616199166666
mp-19284,NiAgO2,-0.799589819166665
mp-20329,InAgO2,-1.392417060833322
mp-20482,EuAgP,-0.890965169325397
mp-21330,EuAgAs,-0.7703992797222251
mp-22707,EuAgSb,-0.7919771855555591
mp-23378,EuAgBi,-0.681513990000003
mp-30250,YAgO2,-2.600528935416664
mp-30332,BaAgBi,-0.22474017722222503
mp-31018,SrAgBi,-0.696440603333333
mp-37949,NdSiAg,-0.5992806058333331
mp-6954,SrAgAs,-0.911668334166667
mp-7359,BaAgAs,-0.7835291347222181
mp-752927,LiAgF2,-2.115317975416667
mp-754110,SmAgO2,-2.539740289166665
mp-754535,LaAgO2,-2.5680289029166543
mp-755585,LiAgO2,-0.8280755112499981
mp-756690,EuAgO2,-2.123101837916653
mp-9899,BaAgP,-0.72254780876984
mp-996965,AgBiO2,-1.104952774166666
mp-997010,TlAgO2,-0.817037913750001
mp-997106,AgRhO2,-0.873900367916665
mp-997162,MnAgO2,-1.387248082399425
mp-775761,AgClO3,-0.41394524133333305
mp-1006372,AgSO4,-1.3589313423611111