material_id,formula,formation_energy_per_atom
mp-12065,Ag3Pt,-0.020391218749995003
mp-30343,InAg3,-0.050664973749995006
mp-30351,MgAg3,-0.136111096249999
mp-30360,TmAg3,-0.135910759166662
mp-864794,ZnAg3,-0.009709552499998001
mp-976772,NiAg3,0.189641159999997
mp-984719,BeAg3,0.22824224250000102
mp-985282,Ag3Ge,0.09973090625000201
mp-985297,Ag3Rh,0.22164874250000102
mp-985443,Ag3Hg,0.031824621874999
mp-1183156,Ag3Rh,0.22892486250000102
mp-1183177,Ag3W,0.867660342500002
mp-1183471,CaAg3,-0.15612301624999902
mp-1185024,LaAg3,-0.17485992249999702
mp-1185499,LuAg3,-0.210255580416664
mp-1186802,PuAg3,0.08222843
mp-1186896,ReAg3,0.8957887237499981
mp-1186973,ScAg3,-0.156942072499997
mp-1187811,YAg3,-0.206751426249997
mp-1187821,YbAg3,-0.22081580749999502
mp-862736,SmAg3,-0.197804233749998
mp-862878,PmAg3,-0.196298743124994
mp-973533,FeAg3,0.354558168750001
mp-985283,Ag3Ge,0.10019832625000101
mp-2273,Ag3Sb,0.050899435000001006
mp-16240,Ag3Sb,0.041008395000002
mp-611,Ag3Sn,0.013177481250000001
mp-1223839,InAg3,0.05660245370192701
mp-27821,Ag3P11,-0.046166636624148
mp-1215087,Ag3SI3,0.719940501785715
mp-632480,Ag3SI,-0.25360182949999804
mp-673825,Ag3SI,-0.24251906049999802
mp-676121,Ag3SI,-0.25334974249999803
mp-758198,V4(AgO4)3,-1.792207279736843
mp-29849,Ag3SnP7,-0.07652426325757501
mp-10477,RbAg3Se2,-0.573175774531248
mp-10481,RbAg3Te2,-0.526338080972218
mp-1199654,Ag3P3O10,-1.778204710245535
mp-1205335,RbAg3S2,-0.536817761249999
mp-1205342,KAg3Te2,-0.511444094263886
mp-1207387,Zr2Ag3F14,-2.707728659736842
mp-1213692,CsAg3Te2,-0.48878861499999904
mp-1214935,Ag3Bi8S13,-0.33329704461372
mp-1229165,Ag3Bi7S12,-0.351237027064392
mp-16234,CsAg3Se2,-0.58239625405711
mp-20104,RbAg3S2,-0.40188156208333203
mp-28550,Hf2Ag3F14,-2.7520634002631583
mp-561902,CsAg3S2,-0.49726753177083305
mp-613306,KAg3Te2,-0.26936744759722103
mp-757872,Li2Ag3F6,-1.8574434437121181
mp-9782,KAg3Se2,-0.566161854489581
mp-19412,VAg3O4,-1.211331285624999
mp-1206228,Ce2(AgSb)3,0.24037170562500101
mp-1205948,FeAg3F6,-1.749918151499999
mp-1211988,InAg3F6,-1.788944377999997
mp-2761520,InAg3F6,-1.797543163999999
mp-555269,Ag3SbS3,-0.20678933263392502
mp-22995,Ag3SI,-0.260465865499998
mp-35320,Ag3(AsO4)2,-1.021715522307691
mp-36383,Ag3(PO4)2,-1.605811363406592
mp-35906,Y(AgCl2)3,-1.343167612999999
mp-1195464,Ag3RuO4,-0.696601752499998
mp-18889,VAg3O4,-1.242050435624999
mp-561620,Ag3AsS3,-0.16004723620535302
mp-867824,LiAg3F8,-1.521860468888888
mp-1215074,Ag3Pd13Pb6,-0.20242849886837103
mp-27816,Ag3BO3,-1.149020782738093
mp-676561,Ag3SI,-0.249671857499998
mp-567528,Li17(AgSn2)3,-0.35876891621794804
mp-1222568,Li3Ag3Sn2,-0.27415890187499903
mp-1104271,Ag3SbS3,-0.17753357049106802
mp-1229124,Ag3AsO4,-0.9640073153124981
mp-1229128,Ag3PO4,-1.409352184955356
mp-4431,Ag3AsS3,-0.156706858705354
mp-4515,Ag3SbS3,-0.19799694549107003
mp-5145,Ag3AsSe3,-0.290744232075892
mp-555843,Ag3AsS3,-0.139178357633923
mp-14206,K3Ag3As2,-0.350068366468748
mp-561550,Ag3BO3,-1.2012752898809511
mp-1194638,Ag3B5O9,-2.16436092504902
mp-1218349,SrAg3Pd2,-0.32218655416666603
mp-1227417,Ca2MgAg3,-0.27419274666666504
mp-557620,Ni2Ag3O4,-0.396161379444443
mp-1229185,Ag3AsF12,-1.8012610570312502
mp-2749579,Ag3AsF12,-1.625031354218749
mp-17862,Ag3Ge5P6,-0.041898267346937
mp-4198,Ag3PO4,-1.406864123705355
mp-5408,Ag3AsO4,-0.9621767034374981
mp-1195261,Ag3Sb4F24,-2.392955916774192
mp-1214902,Ag3SbTe4,-0.193561908958332
mp-558189,Ag3SI,-0.21088855749999802
mp-558154,Ag3PO4,-0.186099944955356
mp-570662,Ba4Ag3Ge20,-0.259427691851851
mp-1120715,Ag3BiBr6,-0.49209170049999906
mp-1205508,VAg3F6,-1.823076867299982
mp-1205935,FeAg3F6,-1.691775917499999
mp-1206163,InAg3F6,-1.6455546849999991
mp-1206806,CrAg3F6,-1.861633889499999
mp-1207208,GaAg3F6,-1.7344413669999992
mp-16992,NaAg3S2,-0.45348791052083
mp-18577,KAg3S2,-0.49008505429397703
mp-1227017,Ca4ZnAg3,-0.30785073687499803
mp-12459,Ag3PS4,-0.256124809903273
mp-30908,Ag3PSe4,-0.15376517052827401
mp-9538,Ag3AsS4,-0.141018007968748
mp-760133,Li6Ag3F10,-2.377792166447371
mp-562667,Ag3N5O6,-0.321044200714286
mp-675879,Ag3SI,-0.251774319499998
mp-1173025,Ag3SI,-0.24060876049999802
mp-36600,Ag3SBr,-0.335732132499998
mp-1222558,Li3Ag3Ge2,-0.158525746874999
mp-1229116,Ag3SBr,-0.34032987749999805
mp-674981,Ag3SI,-0.250059037499998
mp-685586,Ag3(Bi2Br3)7,-0.7519538380263161
mp-4762,TlAg3S2,-0.284645771805555
mp-662599,Ag3AsSe3,-0.302367482433035
mp-1105645,Ag3SBr,-0.30571611199999804
mp-1215084,Ag3SbTe6,0.854847681500001
mp-1215149,Ag3BiSe6,0.8404938300598981
mp-8925,TlAg3Te2,-0.035323195277777004
mp-1103538,Tb3Ga8Ag3,-0.463394697499999
mp-1103847,Tm3Ga8Ag3,-0.452541141142887
mp-1104155,Y3Ga8Ag3,-0.45480550392857005
mp-1104172,Er3Ga8Ag3,-0.432827394642856
mp-1104230,Ho3Ga8Ag3,-0.44114492642856906
mp-1105006,Dy3Ga8Ag3,-0.448445102857141
mp-27227,LiAg3O2,-0.8048942663888881
mp-27303,NaAg3O2,-0.7057765477298831
mp-1215096,Ag3SI3,0.7148520075000001
mp-1225457,Eu2GaAg3,-0.37994153375000406
mp-1227088,Ca6Ag3Ge5,-0.6080875510714301
mp-505145,Ag3BiO3,-0.7834499885714281
mp-1183018,Ag3SbS3,0.046945009508933
mp-1202934,Ag3SbO4,-0.9961129615624991
mp-510453,Ag3RuO4,-0.7097687249999981
mp-776370,Ag3IrO4,-0.6306192274999981
mp-1216423,VAg3HgO4,-1.150673211944445
mp-2228501,MgAg3(AsO4)2,-1.3904465132142851
mp-1040985,MgAg3P3O13,-1.779025186946427
mp-1041175,ZnAg3P3O13,-1.622993774446428
mp-1041246,CaAg3P3O13,-1.9253772459464282
mp-1214993,Ag3P3HO9,-1.76723582532366
mp-1222467,LiAg3(IrO3)2,-1.021155238194444
mp-555746,InAg3(PO4)2,-1.854770775782311
mp-1041560,Ba2YAg3O8,-1.754712076071427
mp-555993,CrAg3ClO4,-1.031783739444443
mp-1183032,Ag3SNO4,-0.620957956944444
mp-1201018,Ag3S4(O3F)4,-1.638365028152174
mp-1214975,Ag3C2(NO3)2,-0.20508974076923
mp-581376,Tl3Ag3(SbS3)2,-0.463188391785714
mp-583184,Tl3Ag3(AsS3)2,-0.43435470642857205
mp-645095,UAg3(AsO4)3,-1.7482236090789471
mp-684006,Ag3TeIO4,-0.8476599496296281
mp-2228497,MgAg3(AsO4)2,-1.29020348892857
mp-1192650,V2FeAg3O8,-1.5874047628571422
mp-1195546,Tl5Ag3(PS3)4,-0.5833625858432541
mp-1204480,Tl2Ag3(PO4)3,-1.7903666617797611
mp-559520,In2Ag3(PO4)3,-2.041417593863094
mp-561467,YAg3(PS4)2,-0.8265402456632631
mp-573202,K3Ta2Ag3S8,-1.153003338213539
mp-581115,K3Nb2Ag3S8,-1.119264080421873
mp-582161,K3Ta2Ag3Se8,-1.041728627822915
mp-1181748,Co2Ag3SbO6,-1.166599589305555
mp-6476,Ag3SeNO3,-0.320482268417968
mp-1212079,InAg3(CN)6,0.41292904296875005
mp-568663,FeAg3(CN)6,0.2795022934375
mp-6573,CoAg3(CN)6,0.243467183749999
mp-1224057,In2Ag3SbSe6,-0.367658102864581
mp-1207721,YSi2Ag3O7,-2.3734600212820522
mp-1215032,Ag3Te(PO7)2,-1.038184087797618
mp-653562,Ag3I(NO3)2,-0.410811842499999
mp-556747,Ag3SNO3,-0.521280233749999
mp-1214986,Ag3Mo3AsO13,-1.533126685625
mp-1355420,Ag3Mo3AsO13,-0.08734935337500001
mp-17568,Ag3Sn2(GeP2)3,-0.03840222770408
mp-18310,Si3Ag3(SnP3)2,-0.12519537877550801
mp-2228166,MgVAg3O4,-1.264340758888888
mp-1210930,Mn2V3(AgO4)3,-1.758831668418103
mp-1221011,NaMg4Ag3As4,-0.14540644969827501
mp-1223709,K2Ag3Sb3S7,-0.538951603553234
mp-1215111,Ag3Te(AsO7)2,-0.6869635645833321
mp-1182998,Ag3S(NO)3,0.1858752955
mp-1217056,U7V5Ag3O35,-2.8659245516
mp-561304,KAg3As2S5,-0.533055830772726
mp-680045,K2CeAg3Te4,-0.926404592116665
mp-1190149,RbTb2Ag3Te5,-1.072103448106059
mp-1190252,CsEr2Ag3Te5,-1.0472599520898611
mp-1190295,CsPr2Ag3Te5,-1.096251198756529
mp-1190370,CsNd2Ag3Te5,-1.09857847936259
mp-1190421,CsDy2Ag3Te5,-1.065302365120165
mp-1190455,CsGd2Ag3Te5,-1.050671112272725
mp-1190472,CsHo2Ag3Te5,-1.053497077089862
mp-1190502,RbDy2Ag3Te5,-1.063218398560604
mp-1191228,CsGd2Ag3Se5,-1.349750939670357
mp-18710,RbSm2Ag3Se5,-1.33576371947443
mp-542164,CsTb2Ag3Se5,-1.334549737700659
mp-1229212,Ag3C(NO2)3,-0.418777713461538
mp-2217232,MgVAg3O4,-1.3564215277777771
mp-1224083,In3Ag3(HgTe4)2,-0.328148814687505
mp-1226985,Cd2In3Ag3Te8,-0.42035972187500104
mp-1224264,In4Ag3(GeSe4)4,-0.5683692166358021
mp-1224265,InGa2(AgSe2)3,-0.534414168697914
mp-1211557,KLa2Ag3Te8,-0.9989821182559511
mp-1189708,Na3Ag3W2(OF)6,-2.143203441456896
mp-695967,Ag3P6H12N3O19,-1.578763691810631
mp-568978,RbCdAg3(CN)6,0.12384374279411701
mp-571384,KMnAg3(CN)6,0.095620042342291
mp-6855,K2NaAg3(CN)6,-0.056561706909721
mp-695941,Ag3H13SeN4O5,-0.6396731714843741
mp-1183016,Ag3As2C3Se5N,0.146864405591516
mp-562248,Ag3CS(NO2)3,-0.45080609803571503
mp-1218625,Sr6Fe5Ag3(Se2O5)2,-1.8629526480133922
mp-1198516,Ag3CN(ClO5)2,0.01231062117647
mp-1197801,Ag3P2N(O3F)2,-1.370495817091836
mp-1215046,Ag3HSN3O2,0.17117053737500001
mp-690706,FeAg3H6(C3N4)2,0.032577229687499
mp-23772,TbAg3H6C6(N2O)3,-0.47490912696666604
mp-1222034,MgAg4,-0.026510542333331003
mp-1223819,InAg4,0.055501302333331004
mp-1214184,BeAg4,0.5054697276666681
mp-1222549,Li9Ag4,-0.13117913010988902
mp-30354,ScAg4,-0.18631707499999903
mp-568953,LuAg4,-0.22904231133333303
mp-2226542,Mg(Ag2O3)2,-0.6822437265151511
mp-676206,RbAg4I5,-0.678291408166665
mp-676391,RbAg4I5,-0.625328704666665
mp-676687,RbAg4I5,-0.6491689621666651
mp-676813,RbAg4I5,-0.668785334666665
mp-705778,Mn3(AgO2)4,-1.204488907363983
mp-510240,Rb2Ag4S3,-0.630635717685179
mp-573891,K2Ag4Se3,-0.6632701742442101
mp-685999,Ag4SI,0.000285668472223
mp-7494,K2Ag4S3,-0.599046196770831
mp-1103870,Eu(In2Ag)4,-0.06886517807692101
mp-27482,Ag4P2S7,-0.24227650421586602
mp-554357,Ag4TeO5,-0.771264614333333
mp-704268,Mn3(AgO2)4,-1.226028946863984
mp-31239,Mn3(AgO2)4,-1.22403709153065
mp-1077980,Sr(Ag2Sb)2,-0.356080660952379
mp-1078223,Eu(Ag2Sb)2,-0.362122011666667
mp-1222143,Mg3InAg4,-0.18198836479166502
mp-2240720,Mg(Ag2O3)2,-0.8327039692424231
mp-1048230,BaAg4O7,-0.37643759722222103
mp-560342,Ag4GeO4,-0.8931182618518501
mp-1195808,Ag4Sn3S8,-0.331556197333336
mp-2222869,Mg(Ag2O3)2,-0.24344086560605901
mp-1218380,SrCa3Ag4,-0.283145797406248
mp-28996,Ag4Bi2O5,-0.9037052553787881
mp-1218586,Sr3CaAg4,-0.27019301555207803
mp-1227658,BaSr3Ag4,-0.29668039083333203
mp-1228028,Ba3SrAg4,-0.280498098333334
mp-1197838,V2Ag4O7,-1.3957250020993581
mp-1225134,EuGaAg4,-0.233627699166665
mp-1101777,Pr3(AgSn)4,-0.552120943787878
mp-1102578,Nd3(AgSn)4,-0.5495269326515141
mp-1205486,Pr3(AgGe)4,-0.6041863440909091
mp-1205490,La3(AgSn)4,-0.587490528333333
mp-1205500,Sm3(AgSn)4,-0.5318864356060601
mp-1205782,Sm3(AgGe)4,-0.6077658827272701
mp-1206903,Nd3(AgGe)4,-0.61145357113636
mp-22808,Dy3(AgSn)4,-0.47490071106060305
mp-542824,Ce3(AgSn)4,-0.444669583333332
mp-567241,Pr3(AgSn)4,-0.154433213787877
mp-567670,Ho3(AgSn)4,-0.45713496196969405
mp-581496,Ce3(AgSn)4,-0.06650704151514901
mp-640597,Ce3(AgGe)4,-0.7313313396969671
mp-1207863,V(AgO)4,-1.057459651851851
mp-556164,Si(AgO)4,-1.2817707551851831
mp-1229187,Ag4Sn2(HgSe3)3,-0.45372355473669
mp-1233090,CaMn4(AgO4)4,-1.110220350335631
mp-1233098,MgAg4(PO3)4,-1.946099542392289
mp-1233177,CaMn4(AgO4)4,-1.087584354735632
mp-1233201,MgMn4(AgO4)4,-1.0417592557356299
mp-1233488,CaAg4(PO3)4,-2.015659095011337
mp-1235487,LiAg4(PO3)4,-1.932806261836733
mp-1236396,LiAg4(PO3)4,-1.9368346442176851
mp-2218858,MgAg4(AsS)4,-0.225885358589743
mp-2220534,MgMn4(AgO4)4,-1.05921607573563
mp-2220649,MgMn4(AgO4)4,-1.039679537335632
mp-2220928,MgMn4(AgO4)4,-1.033632317735632
mp-2228680,MgAg4(GeO4)2,-1.313477109444443
mp-553924,Ag4PIO4,-1.227746526880951
mp-1182984,Ag4Te(PO7)2,-1.231052928458049
mp-6637,MnAg4(SbS3)2,-0.319822018053151
mp-2228952,MgCo4(AgO2)4,-0.97960883127451
mp-2229688,MgCo4(AgO2)4,-0.9646656318627451
mp-2229714,MgCo4(AgO2)4,-0.980424675392156
mp-1233247,MgAg4(RuO3)4,-1.096019430079365
mp-1233339,CaAg4(RuO3)4,-1.145724115079364
mp-1235400,LiAg4(RuO3)4,-1.068183962857142
mp-1046961,BaMg(AgO2)4,-0.870694029404761
mp-1046965,BaZn(AgO2)4,-0.6986592411904761
mp-1046998,BaCa(AgO2)4,-0.920845028333332
mp-1199607,Ag4TeSO4,-0.9670417785833321
mp-618375,Ag4Te(NO3)2,-0.46854466506410103
mp-738646,Ag4Te(ClO3)2,-0.293216047371793
mp-1180483,MnAg4(PO4)6,-1.596129774641567
mp-1203837,NiAg4(PO4)6,-1.504690717843536
mp-1229230,Ag4C(NO3)3,-0.512760366568628
mp-2227031,MgZn2(AgO2)4,-1.013930407444443
mp-2227305,MgZn2(AgO2)4,-0.9783418747777771
mp-1233345,MgAg4(RuO3)4,-0.9933324791269831
mp-1233547,CaAg4(RuO3)4,-0.9764866626984121
mp-1234665,MgAg4(RuO3)4,-1.017584760555555
mp-1235663,LiAg4(RuO3)4,-1.005767312857143
mp-1235873,LiAg4(RuO3)4,-1.012967516190476
mp-2232168,MgAg4(MoO4)2,-1.118835832111111
mp-1233235,MgMn4(AgO4)4,-1.043834799335631
mp-556570,Ag4Se(IO2)2,-0.6861801392282191
mp-560947,Ag4S(NO)2,-0.179362624907406
mp-2227342,MgZn2(AgO2)4,-0.6110162341111101
mp-1233474,CaAg4(RuO3)4,-1.109178493650793
mp-2220472,MgAg4(RuO3)4,-0.9933636834126971
mp-558550,Ag4Mo2Se3O16,-1.227226647047916
mp-1233046,Y4Mg(AgO3)4,-2.20164123579365
mp-1233425,CaY4(AgO3)4,-2.207493006984127
mp-1235973,LiY4(AgO3)4,-2.155772537142856
mp-2226432,MgAg4(AsS)4,-0.21588718782051203
mp-2227480,MgZn2(AgO2)4,-0.9029620847777761
mp-2228953,MgCo4(AgO2)4,-0.9807601824509801
mp-2229345,MgCo4(AgO2)4,-0.9804343642156861
mp-2229559,MgCo4(AgO2)4,-0.991499501274509
mp-542199,Ag4HgGe2S7,-0.46298850404761804
mp-542200,CdAg4Ge2S7,-0.5322799706547601
mp-1229155,Ag4Hg4S4BrCl3,-0.597054644479167
mp-1233805,MgAg4Te8(MoO12)2,-1.443185172435896
mp-1233997,MgAg4Te8(MoO12)2,-1.451189939102563
mp-1234308,MgAg4Te8(MoO12)2,-1.456836810128204
mp-2898219,MgAg4Te8(MoO12)2,-1.222598203717949
mp-2230111,Cs4MgTi2(AgS2)4,-1.114679568787053
mp-2230127,MgTi2Si2(Ag2O5)2,-2.151309112543859
mp-553936,K2Ag4Pd3(NO2)12,-0.7553662612481491
mp-557863,K2Ag4Pt3(NO2)12,-0.762454828359259
mp-558305,Rb2Ag4Pd3(NO2)12,-0.7576174129259261
mp-558201,ZrMn2Ag4(MoO4)6,-1.89557797270348
mp-1210391,NiAg4P6(HO3)6,-1.587136401486394
mp-1212305,MnAg4P6(HO3)6,-1.620905316570137
mp-1214242,Be3Ag4P3BrO12,-2.230840535460662
mp-1202600,Zn5Ag4Sn3Se13N6,0.40513986573756705
mp-683972,Cs5Ag4C8IN8,-0.23226294730548103
mp-2229996,Cs4MgTi2(AgS2)4,-1.001520066155474
mp-2230007,Cs4MgTi2(AgS2)4,-1.038541465102842
mp-2232007,MgTi2Si2(Ag2O5)2,-2.266433355701753
mp-2230649,MgTi2Si2(Ag2O5)2,-2.081957754649121
mp-1224735,K12Ag4As8CSe20O,-0.743097617403079
mp-1229204,Ag4Hg5S5IBrCl2,-0.523631087592593
mp-1185839,MgAg5,-0.09011195555555301
mp-1223062,LaAg5,-0.109825852499999
mp-1185833,MgAg5,-0.092238795555555
mp-1814,BaAg5,-0.155002803055553
mp-2410,SrAg5,-0.17491912583333402
mp-542568,EuAg5,-0.173007971666668
mp-1211140,Li8Ag5,-0.16507384294871802
mp-30361,Zn8Ag5,-0.023234960769229002
mp-567857,Cd8Ag5,-0.053803280769229
mp-1221982,MgZn4Ag5,-0.086622344333332
mp-1222139,Mg4CdAg5,-0.198184008833332
mp-29685,RbAg5Se3,-0.45448120031828804
mp-10480,CsAg5Se3,-0.47073491083552704
mp-9206,CsAg5Te3,-0.36323274444444503
mp-28812,Ag5BiO4,-0.6585394598333311
mp-5563,Ag5GeO4,-0.815454045583334
mp-569467,Ag5Te2Cl,-0.23720146101562603
mp-555565,Ag5(PbO3)2,-0.8021014560256401
mp-22286,Ag5(PbO3)2,-0.8022593106410231
mp-554648,Ag5IO6,-0.514713212777776
mp-28468,KAg5S3,-0.39962567616898104
mp-28703,RbAg5S3,-0.47043497351851804
mp-530464,Ag5(Sn3S8)2,-0.32798291154514103
mp-1229225,Ag5BS4,-0.105090334749998
mp-4004,Ag5SbS4,-0.16497965362500203
mp-1205049,SiAg5O4,-1.124494541083332
mp-1219151,Sm4Ga7Ag5,-0.5389477703125001
mp-1215016,Ag5Te2Br,-0.310763617083332
mp-573465,Ag5Te2Cl,-0.23762317500000302
mp-753279,LiAg5F12,-1.447104649537037
mp-1216989,V12Ag5O32,-2.03131813547619
mp-29536,Ag5CF4,-0.7373676092083281
mp-1229311,Ag5Sb23(PbS4)12,-0.567398341571968
mp-1104423,Ba2YAg5S6,-1.240946243095236
mp-553874,Ba2LaAg5S6,-1.270610511309522
mp-568540,Ag5Hg4P8Cl5,-0.3892654220671
mp-1191803,Ag5TePO4,-1.141271934512986
mp-1191916,Ag5PSeO4,-1.136163740029084
mp-647305,SiAg5ClO4,-1.169058042178029
mp-1194068,Ag5HgSbO6,-0.808870453910256
mp-559847,Ag5P(S2Cl)2,-0.5435249585813471
mp-1195102,RbAg5(PS4)2,-0.5652161298511891
mp-2232218,Mg(Ag3O4)2,-0.6371873769999981
mp-2232372,Mg(Ag3O4)2,-0.679134641666666
mp-560584,Si2Ag6O7,-1.451764172333332
mp-561313,Si2Ag6O7,-1.445429861999999
mp-1229161,Ag6P6O19,-1.814864740414746
mp-1205440,Ag6Mo10O33,-1.626707688265305
mp-504579,Ag6Mo10O33,-1.626571120306121
mp-1229118,Ag6SnSb,0.029359320000001004
mp-15487,Ag6Ge2O7,-1.017148676166665
mp-541728,Si2Ag6O7,-1.449326668166665
mp-27286,Ba(Ag3O2)2,-0.830284046590908
mp-27352,Sr(Ag3O2)2,-0.8542381654545431
mp-1233828,MgAg6Mo10O33,-1.6768472504000012
mp-1233948,MgAg6Mo10O33,-1.6602585960000011
mp-1234022,MgAg6Mo10O33,-1.678372458799999
mp-1234516,MgAg6Mo10O33,-1.667890270800001
mp-1200173,CrSi(Ag3O4)2,-1.207304139687499
mp-555015,SiAg6SO8,-1.285976503593748
mp-558786,Ag6GeSO8,-1.083719238593748
mp-1229145,Ag6SbAsS6,-0.178491079419645
mp-1204185,Ag6Te4W3O20,-1.408657404595959
mp-1204976,V2Ag6As2O13,-1.35738644021739
mp-560774,U3Ag6Mo5O27,-2.062823101463413
mp-560230,CeAg6(NO3)9,-0.919411303953487
mp-1215150,Ag6H3IO6,-0.389764671171874
mp-2229909,MgV2(Ag3O4)2,-1.278422312647058
mp-1229274,Ce8Ag6Ge8O,-0.7794721526086941
mp-1219355,SiAg6HgSe6,-0.37823067225446305
mp-1229209,Ag6HgGeSe6,-0.33407845225446303
mp-1229218,Ag6Hg(P10I)2,-0.07832991397783101
mp-1229171,Ag6S2IBr,-0.28451096549999805
mp-1229201,Ag6HgNO11,-0.537861301184209
mp-2229240,MgV2(Ag3O4)2,-1.234361489705882
mp-1197642,Ag6Sn3(S5N)2,0.173119916622023
mp-559880,K2Ag6Sn3S10,-0.6607841430714191
mp-1214970,Ag6Ge(S2Br)2,-0.45820348653846005
mp-1214971,Ag6Ge(S2Cl)2,-0.504840261730767
mp-2230509,MgCr2Ag6(ClO4)2,-1.140114002894736
mp-2230004,MgCr2Ag6(ClO4)2,-1.119738275526314
mp-553919,Ag6Mo2ClO7F3,-1.358812299473683
mp-2231172,MgAg6Mo2ClO7F3,-1.39601088625
mp-28228,Ag7Te4,0.141600593113637
mp-1210857,Mg26Ag7,-0.08867523080808001
mp-16770,Ca2Ag7,-0.22075397611111003
mp-1100952,V16Ag7O40,-2.027801640820106
mp-1247841,Ag7PSe6,2.429974005903495
mp-1247930,Ag7(SI)2,-0.130662885151513
mp-674352,TaAg7S6,-0.433403855285712
mp-675987,Ag7(SI)2,-0.11431194969696801
mp-676348,NbAg7S6,-0.41476052261904506
mp-863411,V18Ag7O48,-2.048039243995434
mp-757612,Ag7(PbO3)3,-0.8129773408771921
mp-29934,Zr6Ag7F31,-3.143432856022727
mp-683910,Ag7P3S11,-0.232467901620617
mp-34787,Ag7NO11,-0.506803181666666
mp-766328,Ag7Sb9O25,-1.435631241382114
mp-1197032,Ag7PS6,-0.19360991766794203
mp-1200563,Ag7AsSe6,-0.27326094505208204
mp-15077,Ag7AsS6,-0.12576972156249902
mp-8594,Ag7PSe6,-0.165708605167939
mp-531125,Ag7(PbO3)3,-0.8125749475877181
mp-696470,Ag7NO6,-0.15309539119047502
mp-690667,Ag7NO8,0.457978192708334
mp-37695,Ag7NO11,-0.5118082090350791
mp-3926,NbAg7S6,-0.438800421190474
mp-620369,TaAg7S6,-0.47291320885714105
mp-1198931,CsAg7S4,-0.314710139895832
mp-30543,RbAg7S4,-0.37682686409722105
mp-2647022,Pt,0.069093715000001
mp-126,Pt,0.0
mp-2646979,Pt,0.10703881999999901
mp-1199016,Ga5Pt,-0.30570694666666604
mp-615820,Pu2Pt,-0.059599662499991005
mp-1092293,Bi2Pt,-0.23567185958333403
mp-1179938,PtCl2,0.10440218055555901
mp-1185838,Mg5Pt,-0.27972147416666604
mp-1219748,PtCl2,-0.42604107833333105
mp-510438,InPt,-0.5714708929999971
mp-1120769,RuPt,0.07581536
mp-11470,Hg2Pt,-0.080404438333336
mp-11798,Fe3Pt,-0.07329822499999801
mp-1194,CdPt,-0.287571474999998
mp-1206750,CrPt,-0.275839335
mp-1670,MnPt,-0.346201598965516
mp-2260,FePt,-0.231995889999999
mp-2678,VPt,-0.550341079999999
mp-623,HgPt,0.038799462500008
mp-894,ZnPt,-0.5652836399999991
mp-945,NiPt,-0.095115924999998
mp-949,CoPt,-0.073157964999999
mp-21296,PtPb4,-0.16461350999999202
mp-288,PtS,-0.5334567439062461
mp-7947,PtO,-0.584307552499999
mp-1077716,PtO2,-0.886159448333332
mp-1192954,Nb2Pt,-0.516182265666672
mp-1100766,Ni3Pt,-0.069045414999999
mp-1183641,Cd3Pt,-0.1574664275
mp-1184608,Hg3Pt,0.15282212875001
mp-1184857,In3Pt,-0.11342645666666501
mp-571622,Be12Pt,-0.094288496153846
mp-865355,Zn3Pt,-0.399549332499998
mp-974376,PtRh3,-0.024695205
mp-976322,Li3Pt,-0.45310387178571404
mp-982871,Na3Pt,-0.08467967534482801
mp-28319,PtI2,-0.41580178833333703
mp-541341,PtF5,-1.240684831458331
mp-1101251,Tl2Pt,-0.037054912037045
mp-13208,Mg2Pt,-0.6882326533333321
mp-21318,PtPb2,-0.170389376666662
mp-571160,Tl2Pt,-0.10629864666666801
mp-571406,Ga2Pt,-0.5718638647916661
mp-23165,PtBr3,-0.6577550981249981
mp-31134,PtCl3,-0.502917241458334
mp-1179856,PtO6,-0.138445659285714
mp-28268,PtI3,-0.431066994375
mp-1078313,Bi2Pt,-0.234871187777786
mp-1115,PtSe2,-0.46391612604166704
mp-1223728,In2Pt,-0.317704390000002
mp-1224692,Fe2Pt,0.107300243333334