material_id,formula,formation_energy_per_atom
mp-1037140,Mg30CuCO32,-2.797721682734375
mp-1037154,Mg30CuBiO32,-2.867686661249999
mp-1037183,Mg30CuBiO32,-2.868149521249999
mp-1037204,Mg30ZnCuO32,-2.918746302656249
mp-1037239,Mg30NbCuO32,-2.9137970542187492
mp-1037248,Mg30CdCuO32,-2.898542547656249
mp-1037249,SrMg30CuO32,-2.9306075412499992
mp-1037251,BaMg30CuO32,-2.886427099062499
mp-1037287,Mg30CrCuO32,-2.937527052656249
mp-1037288,Mg30CrCuO32,-2.93346610515625
mp-1037298,Mg30FeCuO32,-2.913267081875
mp-1037306,Mg30NbCuO32,-2.913191635624999
mp-1037310,SrMg30CuO32,-2.926953656562499
mp-1037311,Mg30TiCuO32,-2.963554499895832
mp-1037312,BaMg30CuO32,-2.87998473796875
mp-1037325,Mg30CuSnO32,-2.881132912421874
mp-1037328,Mg30CuSiO32,-2.91705311078125
mp-1037331,Mg30CdCuO32,-2.896658229374999
mp-1037357,Mg30FeCuO32,-2.906584910625
mp-1037360,Mg30CuSnO32,-2.884455122109374
mp-1037361,Mg30TiCuO32,-2.958739654427082
mp-1037367,Mg30CuNiO32,-2.9063445525000002
mp-1037390,Mg30VCuO32,-2.9345009381250002
mp-1037407,Mg30CuNiO32,-2.905111399843749
mp-1037409,Mg30CuSiO32,-2.9058845796874992
mp-1037486,Mg30ZnCuO32,-2.918032329062499
mp-1037496,Mg30CoCuO32,-2.9036034101562502
mp-1037511,Mg30CoCuO32,-2.89181842265625
mp-1037549,Mg30VCuO32,-2.9387152856250003
mp-1037716,YMg30CuO32,-2.97165829078125
mp-1037730,YMg30CuO32,-2.96964795484375
mp-1037989,Mg30MnCuO32,-2.929974470592672
mp-1038089,CaMg30CuO32,-2.958489151406249
mp-1038159,CaMg30CuO32,-2.9566334189062493
mp-1038313,Mg30MnCuO32,-2.924995300905172
mp-1099236,Mg6NbCuO8,-2.570122193125
mp-1099237,Mg6TiCuO8,-2.734470371458333
mp-11147,Na5CuSO2,-1.315347740488505
mp-1147528,Na2Cu(BrCl)2,-1.2987435332512312
mp-1147535,Ca2Cu(SCl)2,-1.545936804732144
mp-1147536,Ca2Cu(SO)2,-1.9358712992857132
mp-1147537,K2Cu(BrF)2,-1.7685323192142852
mp-1147538,Sr2Cu(ClO)2,-2.016585395714286
mp-1147555,Sr2CuPtO2,-1.616200979999999
mp-1147556,Sr2Cu(BrO)2,-1.879774279999999
mp-1147564,Ba2Cu(SO)2,-1.847915357857143
mp-1147575,Li3CuOF3,-2.543069295
mp-1147580,Sr2CuSeO2,-2.133033340390625
mp-1147582,Sr2CuSO2,-2.13757237125
mp-1147584,NaCuSI,-0.394184798469826
mp-1147589,Ba2CuSeO2,-2.055166455390624
mp-1147602,K2CuI2O,-0.7580811582499991
mp-1147631,LiCuOF,-1.931979825833333
mp-1147659,K2Cu(IF)2,-1.6640639249285711
mp-1147703,Sr2CuTeO2,-2.045791882777777
mp-1147751,Ba2CuTeO2,-1.976433397777778
mp-1147764,Na2Cu(ICl)2,-1.20437124182266
mp-1147767,Ba2CuSO2,-2.058557482916666
mp-1206073,Hf2CuSiAs2,3.108988044166667
mp-1207455,Zr2CuSiP2,0.44448093011904705
mp-1207732,Y2CuSe2O,-0.808123028281249
mp-1208270,Th2CuP2O,-0.332624019047617
mp-1208929,Sr2CuS2F,-1.034158220104166
mp-1208930,Sm2CuSe2O,-0.7900500366145831
mp-1208978,Sm2CuSe2F,-0.9615058644097161
mp-1209735,Pr2CuS2O,-0.7423410438888881
mp-1209771,Nd2CuS2O,-0.7604050558333331
mp-1209860,Nd2CuTe2O,-0.7160856855555541
mp-1211335,La2CuSe2O,-0.908087244947917
mp-1211660,La2CuTe2O,-0.8357168247222221
mp-1212968,Eu2CuSe2O,-0.7665726582812511
mp-1213034,CuBi2Se2O,-0.28932232828125004
mp-1213110,CuBi2Te2O,-0.32481155305555603
mp-1213117,Dy2CuSe2O,-0.831422013836803
mp-1213297,La2CuS2O,-0.9853484100000001
mp-1213871,Ce2CuS2O,-0.9578776749999981
mp-1213961,Ce2CuTe2O,-0.7464035763888871
mp-1214594,Ba2YCuO5,-2.515164109444444
mp-1214731,Ba2CuSe2F,-0.9974091799479161
mp-1214778,Ba2CuTe2F,-0.8899362030555551
mp-1223639,K2MgCuF6,-2.937531104949999
mp-1223641,K2MgCuF6,-2.924159902949999
mp-1228350,Ba2ScCuO4,-2.879962554375
mp-1228360,Ba2InCuO4,-2.225249320833332
mp-1232312,Ca2Cu(CO)2,-1.104886327142857
mp-1521783,BaCu(SeO3)4,-0.816590303298611
mp-20942,Ba2TlCuO5,-1.8797028387037051
mp-2210625,LaMgCuO3,-1.842794545833333
mp-2210648,BaMgCuS2,-0.619369577999999
mp-620290,Sr2TlCuO5,-1.984717596481482
mp-6562,Ba2CuHgO4,-1.9530175465625002
mp-755243,Li5CuSO2,-1.648559671574074
mp-1207585,Zn10Cu(B4Rh9)2,-0.40034327292792704
mp-1209000,Sc2CuB2Ir5,-0.6944781563333331
mp-20212,BaPr2CuO5,-2.9366641414814803
mp-6704,BaNd2CuO5,-2.965151688888888
mp-1078472,TiCuGeAs,-0.48054109125000005
mp-1078698,ZrCuGeAs,-0.5876897506250001
mp-1079332,HfCuSiAs,-0.517798169374999
mp-1079385,CeCuTeO,-2.058752770416665
mp-1080455,TiCuSiAs,-0.526463028499998
mp-1080650,BaCuSF,-2.261026764375
mp-1080723,HfCuGeAs,-0.49972197312499905
mp-1087483,ThCuPO,-2.170959519910713
mp-1087496,NpCuPO,-1.700199693348213
mp-1091416,SrCuTeF,-2.085644728750001
mp-1096855,BaCuSeO,-1.512976469335936
mp-1147546,SrTiCuO4,-2.671298224047619
mp-1147567,CaTiCuO4,-2.686667433333332
mp-1201383,U2Cu(PO10)2,-1.175946792771428
mp-1209963,NaLaCuTe4,-1.073395066149425
mp-1210305,NaCeCuTe4,-1.008061000435138
mp-1211368,KLaCuTe4,-1.134575938416666
mp-12444,SrCuSF,-2.279969743203125
mp-13287,BaCuTeF,-2.130998572916666
mp-13339,EuCuTeF,-2.062303236666667
mp-20370,UCuPO,-1.712338136160712
mp-20588,ZrCuSiP,-0.6979843711607141
mp-21228,SrCuSeF,-2.225306626953122
mp-21354,EuCuSF,-2.249085525625
mp-21356,EuCuSeF,-2.201644781835938
mp-22392,SmCuSeF,-2.014409674348961
mp-23116,CuBiSeO,-0.950861200585937
mp-505262,GdCuSeO,-2.243116855585937
mp-510596,EuCuSeO,-1.9024321780859381
mp-542314,NdCuSO,-2.261039174999999
mp-545369,CuBiTeO,-0.8391133391666661
mp-546790,LaCuTeO,-2.177470654166667
mp-552488,LaCuSeO,-2.314142779335937
mp-6088,LaCuSO,-2.355128379375
mp-613927,KCeCuTe4,-1.067573040559522
mp-6166,PrCuSO,-2.240809981041666
mp-635469,CeCuSO,-2.250206888124999
mp-9194,SmCuSeO,-2.236524274335937
mp-9195,BaCuSeF,-2.238203543085938
mp-9304,DyCuSeO,-2.265136002252602
mp-974307,NdCuTeO,-2.074643937291666
mp-9929,ZrCuSiAs,-0.5891058181250001
mp-1041592,MgCuSb2O7,-1.76955543030303
mp-1041622,CaCuSb2O7,-1.850121632121212
mp-1041633,CaTa2CuO7,-2.8584375239090902
mp-1041735,V2ZnCuO7,-1.9705130492424252
mp-1041768,MgCr2CuO7,-1.819808162878787
mp-1041772,MgV2CuO7,-2.226870957878787
mp-1041817,ZnCr2CuO7,-1.557923344696969
mp-1041857,MgCuMo2O7,-1.96178087439394
mp-1041880,CaCuW2O7,-2.034394212575757
mp-1041894,ZnCuMo2O7,-1.6420332431818192
mp-1041919,MgCuW2O7,-2.013348204090908
mp-1042213,CaCuMo2O7,-2.014777731515152
mp-1042403,CaCr2CuO7,-1.948299117424242
mp-1047760,CaCuBi2O7,-1.490569784545455
mp-1047766,ZnCuBi2O7,-1.134094582121212
mp-1047773,MgCuBi2O7,-1.3782471548484851
mp-1327669,MgTa2CuO7,-2.75265897330303
mp-1328687,ZnCuW2O7,-1.6547390672727271
mp-1329950,Ta2ZnCuO7,-2.482969246939395
mp-1330925,ZnCuSb2O7,-1.470799289393939
mp-17170,HoCu(WO4)2,-2.382025211666665
mp-17192,YCu(WO4)2,-2.36937824375
mp-17194,ErCu(WO4)2,-2.386358747083333
mp-17475,TmCu(WO4)2,-2.39106424625
mp-17630,LuCu(WO4)2,-2.394680906388888
mp-555369,SrCuH6O5,-1.534195357115384
mp-557595,CaV2CuO7,-2.362450883939394
mp-1043306,MgCu(Si2O5)2,-2.892777083749999
mp-1043369,ZnCu(Si2O5)2,-2.7061276209375
mp-14862,SrCu(Si2O5)2,-3.01476975453125
mp-6127,BaCu(Si2O5)2,-3.012247951718751
mp-6189,CaCu(Si2O5)2,-3.006848306875
mp-505342,MnCu(Te2O5)2,-1.508879663099856
mp-1188453,CuN2(Cl2O)2,0.9409050344444441
mp-1189905,CuN2(Cl2O)2,0.8633670761111101
mp-1209593,Rb2Cu(Cl2O)2,-0.802346166666666
mp-1212035,K2Cu(Cl2O)2,-0.7939849077222221
mp-1212085,K2Cu(Cl2O)2,-0.7088170743888881
mp-1212137,K2Cu(HCl2)2,-0.975559661333333
mp-1213238,CuH2(NCl2)2,0.732133081944443
mp-1213405,CuBr4(NO)2,0.9012818327777771
mp-1222411,LiCa2CuN2,-0.7586214130555551
mp-1182662,BaCu(SiO3)2,-2.854952701375
mp-1201761,BaCu(SiO3)2,-2.83535913025
mp-1022723,Ce2Cu(NO)2,-1.929507562857141
mp-1025280,Sr2Cu(OF)2,-2.972635828571428
mp-1078646,K2Cu(Cl2O)2,-1.054172537166666
mp-1080538,CuBr4(NO)2,0.880162572222222
mp-1147540,Ba2Cu(SBr)2,-1.61908486642857
mp-1147542,Ba2Cu(SBr)2,-1.886287930714285
mp-1147574,K2Cu(ClF)2,-2.0368179335
mp-1147576,Sr2Cu(SCl)2,-1.626527808660717
mp-1147578,Ba2Cu(SCl)2,-1.821092786428571
mp-1147579,Sr2Cu(SCl)2,-1.845894317232145
mp-1147581,Ba2Cu(SCl)2,-2.017293339285714
mp-1147587,Ce2Cu(NO)2,-2.133255778571428
mp-1147595,CuPb2(ClO)2,-1.329378934285713
mp-1147601,CuPb2(SCl)2,-0.7633410564285701
mp-1147654,Cd2Cu(SO)2,-0.24526957499999902
mp-1147707,Rb2Cu(ClF)2,-2.036905906428571
mp-1147722,Ca2CuSO2,-1.8404561479166661
mp-1147743,Th2Cu(NO)2,-2.141367372857142
mp-1147755,Ga2Cu(SO)2,-0.18399686142857002
mp-1147757,CuPb2(OF)2,-1.728999597142857
mp-1147760,La2Cu(NF)2,-2.23205089
mp-1147765,CuPb2(OF)2,-1.584732492857142
mp-1189126,CuPt(NCl)4,1.52846962716668
mp-1212998,CuH2(Br2N)2,1.13280226861111
mp-1213044,CuN2(Cl2O)2,1.150547055555554
mp-1221863,Mn2InCuTe4,-0.36355365898706504
mp-1342094,SrCuBiO4,-1.701336221428571
mp-1386589,BaTlCuO4,-1.478267061904762
mp-1393408,SrCuSO,-1.4861182718750001
mp-2223095,Ho2MgCuO4,-2.360107213124998
mp-2223648,Y2MgCuO4,-2.330988846875
mp-2223663,Pr2MgCuO4,-2.2699820585416672
mp-2224754,Pr2MgCuO4,-2.173321391041667
mp-2225833,Nd2MgCuO4,-2.158731552499999
mp-2226434,La2MgCuO4,-2.278149250625
mp-22272,Ba2UCuO6,-2.648596622999998
mp-2227814,Nd2MgCuO4,-2.288575736249999
mp-2227867,La2MgCuO4,-2.383401598125
mp-2227895,Sm2MgCuO4,-2.310085355624999
mp-2240373,Eu2MgCuO4,-2.351492830625002
mp-23102,Sr2Cu(ClO)2,-2.448147261428572
mp-23143,Ca2Cu(ClO)2,-2.407438672857143
mp-545481,Ca2Cu(BrO)2,-2.260203145714285
mp-546898,Sr2Cu(BrO)2,-2.286592217142856
mp-549487,Sr2Cu(IO)2,-2.040133024285713
mp-550722,Ba2Tl2CuO6,-1.7806951660606072
mp-551613,Ba2CuWO6,-2.444460666
mp-555332,BaCu(SiO3)2,-2.855667579499999
mp-9238,Ba2UCuO6,-2.988900823999999
mp-10288,LaCuTeS,-1.561600344791656
mp-1041212,BaMgCuF7,-3.0965032295
mp-1041302,BaZnCuF7,-2.74429844375
mp-1042399,MgCuAs2O7,-1.8060128827272721
mp-1042425,ZnCuAs2O7,-1.524946605681818
mp-1042915,MgCu(GeO3)2,-2.028678915999999
mp-1043010,ZnCu(GeO3)2,-1.7468183885
mp-1043901,ZnCuBiO5,-1.1335098684375
mp-1044003,MgCuBiO5,-1.5071430506249999
mp-1044081,CaCuBiO5,-1.643511438125
mp-1044124,MgCuP2O7,-2.482872196071427
mp-1044511,BaCaCuF7,-3.19770176125
mp-1044602,ZnCuP2O7,-2.205349724707791
mp-1048098,CaCuP2O7,-2.577225748571427
mp-1105650,CuC2(NCl2)2,0.815719657060183
mp-1180294,Na2Cu(SO5)2,-1.500729313183908
mp-1181491,CuSi(O2F3)2,-1.3253546695833331
mp-1181849,K4Cu(IO10)2,-0.6617668347777781
mp-1181853,Fe2Cu(AsO7)2,-0.749299164210525
mp-1182273,CuP3NO9,-1.6718832654591842
mp-1182274,CuC4(NO2)4,-0.43053354882353
mp-1190539,TlCuPS3,-0.594400572996031
mp-1190783,CuP2(HO)4,-1.224035549480519
mp-1191611,TiCu(O2F3)2,-1.4320236894444451
mp-1192472,CuAgPO4,-1.687262392329931
mp-1193070,CuS2(N2O3)2,0.417027803461538
mp-1193267,Fe2Cu(PO5)2,-1.931854351952381
mp-1193617,CuH8(BrO2)2,-1.129483402666666
mp-1193873,CuHg(NO5)2,-0.40155753482142903
mp-1193941,Mg2V2CuO8,-2.384128663846154
mp-1194283,Sr2Cu(HO)6,-1.7835124165
mp-1194779,CuH3C3O4,-0.935344464886364
mp-1194904,CuHg(SeO3)2,-1.07447900371875
mp-1195655,CdCu(SeO3)2,-1.2534289689687501
mp-1195739,Dy2Cu(SO6)2,-2.122843359607841
mp-1195958,CuAg(AsO4)2,-1.0369891832638891
mp-1196390,CuSb3XeF23,-2.083017015803571
mp-1196587,UVCuO10,-1.30892434826923
mp-1196719,CuS2(NO7)2,-0.559569725526315
mp-1196912,CuP4Se3Cl,-0.412182346733631
mp-1197183,CuP3NO9,-1.687507134030612
mp-1198842,CsCuPS3,-0.8912720592580041
mp-1198851,K4Cu(IO10)2,-0.490432645888889
mp-1199156,Na2Cu(NO3)4,-1.105881297513611
mp-1199580,ZnCu(CO3)4,-1.015078726111111
mp-1200133,MgCuCO5,-1.584273710625001
mp-1200375,Fe2Cu(S2O11)2,-1.026878404482758
mp-1201069,CsCuPSe3,-0.7480920456382131
mp-1201234,CuH8S3O10,-1.270412721363636
mp-1201240,Rb2CuC2O7,-1.5681350164583332
mp-1201294,CuPNO5,-1.445459113392858
mp-1201552,Ga2Cu(SeO3)4,-1.464302678256578
mp-1201891,CuS2(NO7)2,-0.302852672894736
mp-1203158,K2Cu(SO5)2,-1.539641226133333
mp-1203203,ZnCuCO5,-1.2339843340625
mp-1203507,CuP(HO)5,-1.405843037782737
mp-1204893,CuH6(CN2)4,-0.08417541144736801
mp-1207536,ZrCu(O2F3)2,-1.542492651666667
mp-1208325,TlCu(PO3)3,-2.2497031989115652
mp-1209173,RbCuTeS3,-0.6711518198611091
mp-1209760,RbCu(PO3)3,-2.400382944566327
mp-1210243,Rb2Cu(SO7)2,-0.926570365789473
mp-1211597,La2CuIrO6,-2.488256738
mp-1212376,K2Cu(SO7)2,-0.934600751815789
mp-1212531,HfCu(O2F3)2,-1.601355748333333
mp-1213068,CuTeSeI,-0.35457179350260404
mp-1213106,CuTeSCl,-0.26337528953890804
mp-1213116,CuTeSeCl,-0.24687635132812602
mp-1213133,CuTeSBr,-0.474978506041666
mp-1213194,CuTeSeBr,-0.47936149475260303
mp-1213555,CuSn(O2F3)2,-1.050659224999999
mp-1214191,Ca3MnCuO6,-2.521987856857367
mp-1215674,ZnCu(SeO3)2,-1.237838380968749
mp-1219251,Sm2TiCuO6,-3.172998904333333
mp-1220432,Nd2TiCuO6,-3.145141845833333
mp-1221686,MnCu(SeO3)2,-1.327960414261853
mp-1222244,MnCu(CO3)4,-1.122459494607279
mp-1223189,La2TiCuO6,-3.193007655333333
mp-1223365,La2CuRhO6,-2.49391497
mp-1224741,Gd2TiCuO6,-3.168347529333333
mp-1225669,Eu2TiCuO6,-2.809159832833334
mp-1333042,Mg2CuWO6,-2.2545116655
mp-1343267,Zn2CuWO6,-1.6828120944999991
mp-1347506,Mg2CuIrO6,-1.7942537285
mp-1367072,Zn2CuIrO6,-1.258892774999999
mp-1368020,Ca2CuWO6,-2.481847409000001
mp-1375998,Ca2CuIrO6,-2.0191868105
mp-14694,CaCuP2O7,-2.631960237889609
mp-14931,SrCuP2O7,-2.6564611267532463
mp-1520601,Pr2FeCuO6,-2.5678164218333333
mp-17268,Lu2Cu(B2O5)2,-3.037570600588235
mp-17465,Gd2Cu(SeO3)4,-2.10846652444079
mp-17699,Er2Cu(B2O5)2,-3.028765231568627
mp-17874,Sm2Cu(SeO3)4,-2.005956999177631
mp-18259,Ho2Cu(B2O5)2,-3.022947714509802
mp-18267,La2Cu(SeO3)4,-2.044613067598685
mp-18576,Tm2Cu(B2O5)2,-3.035146655392158
mp-21533,CuP2PbO7,-2.2432138512987
mp-21560,CuAs2PbO7,-1.56954440681818
mp-24164,CuH2(SeO3)2,-1.170794665198863
mp-24242,CuHOF,-1.417759754062499
mp-25943,Li2CuP2O7,-2.412108247996031
mp-26223,Li4Cu(PO4)2,-2.486084921674602
mp-26467,LiCuPO4,-2.188822850782312
mp-26875,Li2CuPO4,-2.29035373735119
mp-504264,LiCuPO4,-2.196569655068026
mp-510036,Fe2Cu(P2O7)2,-2.327981111598638
mp-510642,CuNi2(PO4)2,-2.026643345329671
mp-541136,KCrCuF6,-2.671336324416666
mp-554343,K2CuSbS3,-0.9560658392142841
mp-554777,NaCuPO4,-2.150052985860309
mp-554812,CuB2(PbO3)2,-2.036385760757575
mp-555120,KGaCuF6,-2.632207858305555
mp-555570,BaCu(SeO3)2,-1.711736014218749
mp-555871,Na2CuSbS3,-0.8920867621798011
mp-556303,CuBi2(SeO3)4,-1.362707374177632
mp-556635,CuBi2(SeO3)4,-1.361716019703947
mp-556822,Na2CuP2O7,-2.374887227462027
mp-557097,VCuSe2O7,-1.49219532747159
mp-557123,Na2CuSi3O8,-2.693563550911329
mp-557143,Tl2Cu(CO3)2,-1.4833446901515162
mp-557935,Dy2Cu(BO2)8,-2.945495197469135
mp-557980,CuS4BrN4,0.16509899925000002
mp-558012,Ba2Cu(PO3)6,-2.739329850383598
mp-558144,CuH10(CO4)2,-1.196213451071428
mp-558338,Tl2CuAsO4,-1.314727550520834
mp-558415,K3CuP2S7,-1.014379339502746
mp-559099,K3Cu(NO3)5,-1.1983547793437501
mp-559209,NaCuAsO4,-1.5868749409113292
mp-559644,K2Cu(PS3)3,-0.83818765572857
mp-559927,Tb2Cu(BO2)8,-2.9447367739506163
mp-560187,SrCuAs2O7,-1.968097412045454
mp-568611,KCuPSe3,-0.720559654265129
mp-569129,TlCuPSe3,-0.47757952875124104
mp-570757,Nb2Tl3CuSe12,-0.769117696006945
mp-572465,CrCu(PS3)2,-0.655135611678569
mp-600207,CuH12(C2N5)2,-0.004000823888889
mp-606617,CuSb2(XeF8)2,-2.002230323809523
mp-6090,Na2Cu(CO3)2,-1.819791728887147
mp-6168,K3Nb2CuSe12,-1.017774884020833
mp-6203,CaCuAs2O7,-1.9442622340909081
mp-622199,KCuP2Se5,-0.6130262503616061
mp-623030,Na3CuSnSe4,-0.9359494173347691
mp-640894,VInCuO5,-1.870219533802084
mp-643743,CuHClO,-0.9979730940624991
mp-643934,CuH2(CO2)2,-1.07850463361111
mp-6537,CaCu(GeO3)2,-2.1562012882499992
mp-6571,BaCuAs2O7,-1.9701728240909082
mp-6802,KCu(CN)2,-0.13716972378472
mp-6815,Ti2Cu(PO5)2,-2.7990293697301603
mp-684120,LiCuP2O7,-2.211050051147185
mp-696956,CuHClO,-0.673245002187499
mp-705846,CuH16(ClO8)2,-0.9835480481428561
mp-707285,CuH16(IO8)2,-1.061794338285713
mp-707464,CuH3(NO2)3,-0.7203966031730751
mp-707484,CuH2N2O7,-0.6577774243750001
mp-720380,CuP2(HO3)2,-1.4104767112987
mp-730473,CuP2(H2O3)2,-1.5409511984065931
mp-731600,Tl2Cu(I2N)4,-0.340370204111112
mp-733650,CuH6(SeO4)2,-1.193212970422793
mp-753152,LiCuCO3,-1.618660557222223
mp-756758,CuH4(IO4)2,-0.9985807943333331
mp-757660,Li2CuCO4,-1.8166595295833332
mp-758100,LiCuPO4,-2.160842623282312
mp-758325,Li2CuSiO4,-2.320893483020834
mp-758793,Li2CuSiO4,-2.333926212708333
mp-758837,LiCu(PO3)2,-2.272169690011905
mp-758856,LiCuPO4,-2.140960155068026
mp-758897,LiCuPO4,-2.136119149948979
mp-758929,Li2Cu(PO3)4,-2.419303345802005
mp-758990,LiCuPO4,-2.164772663818027
mp-759278,Li2Cu(PO3)4,-2.389415028696742
mp-759365,LiCuPO4,-2.130997054115645
mp-759441,LiCu(PO3)2,-2.270798107386905
mp-759627,LiCuPO4,-2.15778915560374
mp-759823,LiCuPO4,-2.149838682806122
mp-759874,LiCu(PO3)2,-2.269472393636904
mp-760957,NaCuP2O7,-2.212813495515001
mp-765955,Li2CuSiO4,-2.290800243958333
mp-769254,Li2CuAsO4,-1.7799291611458332
mp-780769,LiCu(PO3)2,-2.250608285511904
mp-849754,Li2Cu(PO3)4,-2.414907591065162
mp-9660,Sr2Cu(BO3)2,-2.782948522575758
mp-1097048,LaCuO2F,-2.611624725999999
mp-1147566,SrCuOF2,-2.574675468999999
mp-1232311,AcCuO2F,-2.6348991565
mp-1209607,SrLiCuN,0.145303835416665
mp-1195366,CuPb2Cl3O2,-1.076652068281249
mp-565843,BaCu(SiO3)2,-2.8649476275
mp-1176461,MnCu(PO4)2,-2.097692249490284
mp-1222423,LiTa2CuO6,-2.768063167799999
mp-26513,LiCuPO4,-2.188548844234693
mp-756467,TiCu(PO4)2,-2.572219858551586
mp-768377,FeCu(PO4)2,-2.037813996607142
mp-771903,Fe5Cu(PO4)6,-2.201516816329364
mp-773506,Mn5Cu(PO4)6,-2.294776599375342
mp-773874,CuSb3(PO4)6,-2.235613433466387
mp-774423,V3Cu(PO4)6,-2.369211261995797
mp-1201654,CuPHO4,-1.877832547746598
mp-1203172,UCu(Mo2O9)6,-1.100340464558824
mp-23731,CuSi(HO2)2,-1.8823740909375002
mp-560231,CuSb2(XeF4)6,-1.57046051
mp-683998,CuBi(PSe3)2,-0.222482164282743
mp-1147551,KCuTeO6,-1.2380287259907399
mp-1147553,KCuIO6,-1.020663453583333
mp-1042890,MgCu(GeO3)2,-2.022209309
mp-1042892,ZnCu(GeO3)2,-1.750864654
mp-1043833,Ca2Nb2CuO8,-2.822431173846153
mp-1045006,Ba2Ti2CuF14,-3.586997253508772
mp-1045680,CaCu(PO3)4,-2.598692519365078
mp-1045729,MgCu(PO3)4,-2.528450964087301
mp-1045769,Ba2Mn2CuF14,-2.965024216887477
mp-1045817,Ba2CuMo2F14,-3.063350777631579
mp-1045955,Mg2Ta2CuO8,-2.853492659205128
mp-1045963,Ta2Zn2CuO8,-2.431773333051281
mp-1046840,Nb2Zn2CuO8,-2.2731216034615382
mp-1048563,Mg2Nb2CuO8,-2.694920496923077
mp-10973,K2Ga3CuSe6,-1.038116073630208
mp-1179909,NaCu(IO2)2,-0.317846162047413
mp-1181623,CuTeNO4,-0.719042643095237
mp-1190646,K2CuTeO7,-1.126652171469696
mp-1192982,Ba2CuP2O9,-2.537128381020409
mp-1200663,CuH6N4O5,-0.4548731615625
mp-1208120,TmCu(MoO4)2,-2.257434179583335
mp-1209155,ScCu(WO4)2,-2.340068339583332
mp-1211083,LuCu(MoO4)2,-2.259901183055556
mp-1211177,Li4CuSbO6,-1.9405997215277782
mp-1212689,GaCu(WO4)2,-1.9462747543749992
mp-1212724,Ho2Cu(WO4)4,-2.486866519565216
mp-1213198,CuAg2P2O7,-1.839324817718253
mp-1213222,CuAg2(PO3)4,-2.092089029047619
mp-1213415,CuHg3As2Cl3,-0.39859346296295606
mp-1213479,Dy2Cu(WO4)4,-2.482997972971012
mp-1213744,CrCu(WO4)2,-1.984436133333332
mp-1228148,BaInCuF7,-2.949014915666667
mp-1248614,MgCu(SiO3)2,-2.691135351499999
mp-1250134,CaCu(SiO3)2,-2.8019711525
mp-1255465,ZnCu(SiO3)2,-2.4251888615
mp-1358549,Ba2CuSn2F14,-3.097228690526316
mp-1359749,ZnCu(PO3)4,-2.3385369890873
mp-1361380,Ba2Fe2CuF14,-2.801665327368421
mp-1379023,Ba2Cr2CuF14,-3.039957675789474
mp-18444,Sr3CuRhO6,-2.259917213636363
mp-21552,Na2GaCuF7,-2.679259795478056
mp-21713,K2In3CuSe6,-0.9776056600885401
mp-21727,CuGe5Pb3O14,-1.880478839782607
mp-25975,LiCu(PO3)2,-2.312853813761904
mp-26261,Li2Cu(PO3)4,-2.466710169749375
mp-504867,Sr3CuIrO6,-2.265716756818182
mp-505151,Ca3CuIrO6,-2.299731175
mp-541201,TlCuPO4,-1.919917295068028
mp-541202,TlCuAsO4,-1.387891040833333
mp-541407,RbCuSnS3,-0.8882653358333321
mp-542176,CuH8C4O5,-0.8408372391666661
mp-555515,CuAg4TeO6,-0.7985137456944431
mp-556238,CuC3(OF)3,-1.460429206500001
mp-557171,Na2Cu(PO3)4,-2.4577612008594762
mp-558286,CuSb(MoO4)2,-1.729172382083334
mp-558434,Ca3CuRhO6,-2.303566461363636
mp-560466,Na2FeCuF7,-2.5608961888871473
mp-560805,Ba2CuSi2O7,-2.9444711900000002
mp-565968,Na2FeCuF7,-2.558706568773511
mp-571268,CuHg3As2Br3,-0.43756129583333503
mp-616610,InCu(MoO4)2,-1.7825140109722222
mp-6297,CaCu(GeO3)2,-2.144718314
mp-6412,Li2CuP2O7,-2.450907211746031
mp-6467,Na2CuP2O7,-2.383092748087028
mp-6595,Sr3CuPtO6,-2.237133783636364
mp-6698,Th2Cu(PO4)3,-3.167140958551586
mp-672012,InCu(WO4)2,-1.915357530972221
mp-757669,LiCuC2O5,-1.618273540370371
mp-759341,Li4Cu(PO3)6,-2.4870435631445