material_id,formula,formation_energy_per_atom
mp-754068,Mn(Cu3O4)2,-1.11889016986207
mp-758835,Na(Cu3O4)2,-1.006200700758621
mp-1225733,Cu6SnGe,0.018745429999999
mp-1335004,Y4(Cu2O5)3,-2.059829053300001
mp-1225809,Cu6SbAs,0.10335372968749801
mp-757399,La12Cu6O25,-2.93571850011628
mp-1199896,Cu6BiSe6,-0.21477601495192203
mp-1216275,Y(InCu)6,-0.187272943846155
mp-1217863,Tb(InCu)6,-0.18541550137362803
mp-1219370,Sm(InCu)6,-0.182362709835165
mp-1220006,Pr(InCu)6,-0.19133718227107802
mp-1220552,Nd(InCu)6,-0.19309059118131902
mp-1225823,Dy(InCu)6,-0.18124958071427003
mp-1227648,Ca(InCu)6,-0.151512012307692
mp-676499,Cu6PbO8,-0.800659657999998
mp-685488,Mn9(Cu3O10)2,-1.5797567463251232
mp-1217536,Th4Cu6Sn7,-0.28065528735294004
mp-1215617,Zn3Cu6(AsS3)4,-0.5754768811999991
mp-1217430,Y20Cu6(Pb3Se14)3,-1.5790923729626631
mp-1225863,Ho20Cu6(Pb3S14)3,-1.7535547827922051
mp-1228844,Er20Cu6(Pb3S14)3,-1.7569074757792191
mp-1235045,LiCu6OF11,-1.802268913859649
mp-1235051,LiCu6OF11,-1.790382302807017
mp-1235161,LiCu6OF11,-1.800352981754386
mp-1235178,LiCu6OF11,-1.758717903333333
mp-1235344,LiCu6OF11,-1.762348283333334
mp-1235406,LiCu6OF11,-1.76862078491228
mp-1235450,LiCu6OF11,-1.796661431754386
mp-1235453,LiCu6OF11,-1.788851777017544
mp-1235471,LiCu6OF11,-1.773347116491228
mp-1235671,LiCu6OF11,-1.791929168596491
mp-1235674,LiCu6OF11,-1.7445067207017542
mp-1235676,LiCu6OF11,-1.799874329649123
mp-1235764,LiCu6OF11,-1.7627062712280699
mp-1236446,LiCu6OF11,-1.803439730175438
mp-1236652,LiCu6OF11,-1.7741417364912282
mp-1350627,Ca3Cu6(PO4)8,-2.216097518513119
mp-1351940,Ca3Cu6(AsO4)8,-1.590592010816326
mp-2220474,MgCu6OF11,-1.8237220518421051
mp-2220476,MgCu6OF11,-1.914887501315789
mp-2220477,MgCu6OF11,-1.9394582192105272
mp-2220488,MgCu6OF11,-1.9217186986842112
mp-2220491,MgCu6OF11,-1.884801746578947
mp-2220509,MgCu6OF11,-1.869987968157895
mp-2220511,MgCu6OF11,-1.8909313334210531
mp-2220516,MgCu6OF11,-1.851861077631579
mp-2220518,MgCu6OF11,-1.9083592981578952
mp-2220525,MgCu6OF11,-1.90109694868421
mp-2220532,MgCu6OF11,-1.918150236052632
mp-2220570,MgCu6OF11,-1.9114713455263161
mp-2220662,MgCu6OF11,-1.896678504473684
mp-2220750,MgCu6OF11,-1.897266899736842
mp-2220882,MgCu6OF11,-1.8718079592105261
mp-2230054,MgCu6(OF5)2,-1.817803899210526
mp-2230402,MgCu6(OF5)2,-1.8483701039473681
mp-2233379,MgCu6(OF)4,-1.4365722883333332
mp-774800,Li15Zr7(Cu3O14)2,-2.498599381785713
mp-1196371,CeCu6(PO7)3,-1.112080918352534
mp-1220497,NbV(Cu3Se4)2,-0.5822361757812521
mp-1105236,FeCu6(SnS4)2,-0.44151713647058705
mp-1217842,TaV(Cu3Se4)2,-0.582878706864562
mp-1217849,TaV(Cu3S4)2,-0.8623881510833331
mp-1217925,TaNb(Cu3S4)2,-0.8580247160833321
mp-1217929,TaNb(Cu3Te4)2,-0.488376981291666
mp-1226194,Cu6SnWS8,-0.41655872548238704
mp-651268,Fe2Cu6SnS8,-0.545360375588233
mp-766561,LiNd14(Cu3O14)2,-3.010613823435373
mp-774871,Li5V6(CuO4)6,-1.9111585549186991
mp-1190563,Cu6Hg3(SbS3)4,-0.45180130590000006
mp-6287,Cu6Hg3(AsS3)4,-0.4192335259
mp-558757,La4Cu6(MoO4)9,-2.159834127454547
mp-1195501,CeCu6(PO7)3,-1.110272759481566
mp-1213474,Cu6Bi(AsO7)3,-0.802122391854838
mp-557225,Cu6GeWS8,-0.641373546874999
mp-560796,La4Mn(Cu3S5)2,-1.431046472981322
mp-772084,Li5Cu6(P2O7)4,-2.252028148378925
mp-774931,LiLa14(Cu3O14)2,-3.030424921496598
mp-1217928,TaNb(Cu3Se4)2,-0.594848794989555
mp-1225017,FeCu6GeS8,-0.555414216562499
mp-2232749,MgCu6PbO8,-1.0509733515625
mp-1147688,BaIn(Cu3O4)2,-1.147927347916667
mp-1189828,YCu6ClO8,-1.466940753124999
mp-1232361,CsIn(Cu3O4)2,-1.105328966020115
mp-2232639,NaMg(Cu3O4)2,-0.901233012898706
mp-2233053,MgCu6PbO8,-0.9242815453124991
mp-616501,InCu6ClO8,-1.169564246041667
mp-1228010,BaCu6Te6S,-0.53413887625
mp-1228039,BaCu6Te6Se,-0.5133388308816961
mp-1194809,Rb8Cu6As8S19,-0.8047231396951211
mp-1228353,Ba3Nd3(Cu3O7)2,-2.23299144701923
mp-1228365,Ba3La3(Cu3O7)2,-2.2693484501923082
mp-1218599,Sr6Pr3Cu6O17,-2.4413290265625
mp-1223375,La5Cu6S7O4,-2.056638290340909
mp-1228501,Ba3La3(Cu3O7)2,-2.193851811346154
mp-20897,Ba4Y2Cu6O13,-2.2029181126
mp-556714,BaCu6(GeS4)2,-0.7440582091176461
mp-1228146,Ba4Tm2Cu6O13,-2.220641519800001
mp-1228151,Ba4Y2Cu6O13,-2.201911953
mp-1228176,Ba4Pr2Cu6O13,-2.171500537533334
mp-1228184,Ba4Nd2Cu6O13,-2.181808916
mp-1228239,Ba4La2Cu6O13,-2.198501341000001
mp-1228247,Ba4Pr2(Cu2O5)3,-2.080509546975308
mp-1228334,Ba4Eu2Cu6O13,-2.061245566200001
mp-554627,Cu6PS5Br,-0.468166617472527
mp-1100917,VCu6AgMo5O24,-0.981713080585586
mp-1100940,VCu6AgMo5O24,-1.555826803558558
mp-1227547,Cu6Pb2Se6N2O27,-1.033014398117732
mp-1356093,Ba4CaTl4(Cu3O10)2,-1.444807660380953
mp-1228212,Ba3SrSm2(CuO2)6,-2.223057615833333
mp-651706,Cu6AgBi12PbS22,-0.542824070039682
mp-1228357,Ba4PrY(Cu3O7)2,-2.158692256217948
mp-2232954,MgFe2Cu6SnS8,-0.49919070666666604
mp-1228161,Ba6Ca3Cu6Hg3O19,-1.984070004121621
mp-643203,Cu6PbSe2Cl5O8,-1.080906029758522
mp-1228265,Ba4Ca4Cu6Hg2O17,-1.9890679587878792
mp-542197,Ba4Ca4Tl3Cu6O19,-1.983213092083333
mp-1228789,Ba6Y3Co3(Cu3O11)2,-2.19577363675
mp-1210081,NaTi8Cu6BiO24,-2.518330920451149
mp-1220839,NaLaTi8(CuO4)6,-2.6770933908261503
mp-1228286,Ba3SrNd2(Cu3O7)2,-2.158263827115384
mp-1379759,Ba4CaCu6(HgO8)2,-1.469198191206896
mp-2232823,MgFe2Cu6SnS8,-0.529808293333332
mp-1228470,Ba3CaLa2(Cu3O7)2,-2.176205483076922
mp-1228235,Ba4Dy2Cu6NiO15,-2.124594004583333
mp-1228275,Ba4Y2Cu6NiO15,-2.116959976071428
mp-1228381,Ba3LaY2(Cu3O7)2,-2.275214167115384
mp-1228545,Ba2Sr2Y2Cu6O13,-2.209992073000001
mp-1228705,Ba2Sr2La2Cu6O13,-2.205696558200001
mp-1228702,Ba4Nd2Cu6NiO15,-2.061289326785715
mp-1228179,Ba4PrDy(Cu3O7)2,-2.164486627435897
mp-1228202,Ba4PrNd(Cu3O7)2,-2.148963025352563
mp-1228206,Ba4PrSm(Cu3O7)2,-2.15606891025641
mp-1228221,Ba4PrHo(Cu3O7)2,-2.165344737564102
mp-1228227,Ba4PrEr(Cu3O7)2,-2.166014501217948
mp-1228236,Ba4PrY(Cu3O7)2,-2.160123312371794
mp-1228253,Ba4LaPr(Cu3O7)2,-2.15644863602564
mp-1228261,Ba4PrTm(Cu3O7)2,-2.16797287775641
mp-1228301,Ba4PrY(Cu3O7)2,-2.159498193910256
mp-1228341,Ba4GdY(Cu3O7)2,-2.173161811538461
mp-1228407,Ba4PrGd(Cu3O7)2,-2.152702892371794
mp-1228451,Ba4PrLu(Cu3O7)2,-2.164068255705127
mp-1357400,Sr6YTl3(Cu2O7)3,-1.825926346621622
mp-1218946,Sr2CaCu6(BO3)6,-2.282377914848485
mp-2233316,MgFe2Cu6SnS8,-0.540895421666666
mp-1076137,Ba3Sr5Co2(CuO4)6,-1.759785929750001
mp-1356115,Ba6YTl3(Cu2O7)3,-1.7472712452702712
mp-1228182,Ba4PrY(Cu3O7)2,-2.168245911602563
mp-1228601,Ba4PrEu(Cu3O7)2,-2.102558667564103
mp-1216044,Zn3Cu6Sn3(SeS2)4,-0.672556203098958
mp-1228391,Ba3CaLa2Cu6O13,-2.1924297234
mp-1228590,Ba3CaLa2Cu6O13,-2.201973229000001
mp-1216035,ZnFe2Cu6(SnS4)3,-0.620135364374998
mp-1333973,Sr6YGa3(Cu2O7)3,-2.059063330067567
mp-1845875,Sr6Y2Co3(Cu2O7)3,-2.094117923947369
mp-1226362,Cu6Te2Mo2H2Cl4O15,-1.302225830026881
mp-1228635,Ba6CaEu2Cu6(HgO7)3,-1.919474204166667
mp-1228694,Ba6Nd3TiCu6(MoO12)2,-2.5199082018055563
mp-1218685,Sr4CaYCu6(PbO4)4,-1.986264986249999
mp-1218617,Sr4CaHoCu6(PbO4)4,-1.997729841718749
mp-1218734,Sr4CaYCu6(PbO4)4,-1.9912626243749991
mp-1205281,Cu6MoC20S4N5Cl9,1.093402460222221
mp-1218697,Sr6CaY2Ga3(Cu2O7)3,-2.4256210171153842
mp-1218712,Sr6CaY2Ga3(Cu2O7)3,-2.425869422884616
mp-1218668,Sr6CaY2TiCu6(HgO10)2,-2.319615710482456
mp-624307,Cu7Te4,0.084661953636361
mp-1192989,Cu7Hg6,0.14360495576923202
mp-628808,Cu7Hg6,0.346778829230769
mp-1206157,Cu7Si2,-0.008602459037037
mp-1192757,Cu7Hg6,0.13998003615384602
mp-1213668,Cu7Si6,2.765699669897436
mp-21985,In3Cu7,-0.031135998249999002
mp-1225716,DyCu7,-0.104725540624999
mp-624299,Cu7S4,-0.23135375534090802
mp-1100994,TlCu7Se4,-0.17611331177083803
mp-1100995,TlCu7S4,-0.32027662777777804
mp-1223529,KCu7S4,-0.45295058060416604
mp-1226184,Cu7S4N,0.378145854895837
mp-1227291,Cd8Cu7P30,-0.15678490002116702
mp-532104,Mn8Cu7O20,-1.491327812812808
mp-675060,In8Cu7Se16,-0.49429116420419406
mp-676863,Cu7PSe6,-0.11487592983630901
mp-752584,Na5Cu7O13,-1.159433305675862
mp-757403,Na7Cu7O13,-1.293051735727969
mp-765492,Mn11Cu7O24,-1.6167339908867
mp-1226833,Ce2Zn3Cu7,-0.18142429166666602
mp-760128,Mn11Cu7O24,-1.612864229696223
mp-540665,Cu7As6Se13,-0.096541258569712
mp-1213478,Cu7S2O21,-0.7543519740000001
mp-1181551,La8Cu7O19,-2.6076076595588242
mp-532007,Li47Cu7N18,-0.44753302417824004
mp-1196216,Cu7PS6,-0.25727557998937
mp-1201955,Cu7PSe6,-0.11298674912202301
mp-530641,Y4Cu7O16,-2.039758807222222
mp-680389,La8Cu7O19,-2.604061435147059
mp-753148,Li2Cu7F16,-1.952140112133331
mp-1045605,YCu7O12,-1.252145120999999
mp-1194036,Hf6Zn16Cu7,-0.20087316275861902
mp-1194230,Zr6Zn16Cu7,-0.24381977724137902
mp-29823,Cu7PSe6,-0.128615226596514
mp-680813,SrIn6Cu7,-0.11456934071428701
mp-1200359,Na12(CuO2)7,-1.358406605350051
mp-1216750,TlCu7Se4,-0.17585229510417302
mp-674343,Ti10Cu7S20,-1.326041181981981
mp-21964,TlCu7S4,-0.327612340902778
mp-1217737,Tb4Cu7Sn11,-0.283950859621212
mp-1225912,Dy4Cu7Sn11,-0.271776916893938
mp-1216084,ZnCu7(CO5)4,-1.107357388125
mp-1216257,Y8MgCu7O20,-2.679377262083333
mp-1195946,Cu7Se2(Cl3O4)2,-0.985864047812499
mp-1097057,La3Zr2Cu7O12,-2.244796718125
mp-1224252,Na34Cd6Ga92Cu7,-0.12421554451004602
mp-554511,Cu7P12S9Cl7,-0.5765261288061211
mp-559813,Ba9Cu7Cl2O15,-1.923858927121212
mp-1195764,Cu7Te6(O9F)2,-1.29736256121212
mp-1226029,Fe14Cu7(PO4)18,-2.197613766788931
mp-1226201,Cu7Te2(SO10)2,-1.178522804139784
mp-554606,Cu7As6(PbO12)2,-1.4129957662820511
mp-560007,Ba2Cu7(AsO4)6,-1.631647292948718
mp-1229304,Cu7H9(SN)4,-0.28783926880208305
mp-1228013,Co8Cu7(MoO4)12,-1.6201891476
mp-1228264,Ba4Y2Cu7O15,-2.113064854107143
mp-1228315,Ba4Y2Cu7O15,-2.109209260892858
mp-761936,Li4Cu7(PO4)6,-2.019840877102206
mp-762050,Li4Cu7(PO4)6,-2.024165904907085
mp-1076296,Ba6Sr2CoCu7O20,-1.866239636527778
mp-1076342,Ba7SrCoCu7O24,-1.69491217475
mp-1076247,Ba6Sr2CoCu7O24,-1.70537011
mp-1173726,Na4Cu7P4(ClO9)2,-1.89700450554539
mp-1173271,Sr2La6FeCu7O20,-2.471176827777777
mp-1099676,Ba4Sr4CoCu7O24,-1.721844599999999
mp-653840,KCu7TeS5ClO24,-1.5167978745876072
mp-553914,KCdCu7Se2Cl9O8,-1.122152131676339
mp-1147761,Cu8O7,-0.6707249323333321
mp-704745,Cu8O,-0.029395669444443003
mp-32905,Cu8O7,-0.8166500323333321
mp-1195821,Zr3Cu8,-0.16707595590909102
mp-7353,Hf3Cu8,-0.16653073840909102
mp-31217,Cu8O,-0.09724633944444301
mp-760084,Cu8O7,-0.8315388423333321
mp-758138,La16Cu8O31,-2.961070190090909
mp-766404,Ba8Cu8O19,-1.906748576428571
mp-1188128,Cs3(Cu4Se3)2,-0.5587809209926501
mp-17174,K3(Cu4S3)2,-0.66648269510294
mp-28743,K4Cu8Te11,-0.553395502927535
mp-4647,K3(Cu4Se3)2,-0.620512131518381
mp-562230,Rb3(Cu4S3)2,-0.658363996323529
mp-616220,Rb3(Cu4Se3)2,-0.6173688345036741
mp-766079,Sr8Cu8O17,-2.017589839242424
mp-570393,Cu8GeSe6,-0.295905144715278
mp-11638,Eu3(Cu2Sn)4,-0.30221164366666703
mp-1192625,Sr3(Cu2Sn)4,-0.26266435933333304
mp-570710,Ca3(Cu2Sn)4,-0.28484122833333303
mp-676829,Li49Cu8N19,-0.44093097543311505
mp-759634,Sr16Cu8O23,-2.423118397127659
mp-1207422,Zr6Be15Cu8,-0.247027234310345
mp-1208242,Ti6Be15Cu8,-0.227755846379309
mp-1212455,Hf6Be15Cu8,-0.25383042362068703
mp-1214241,Be15(Nb3Cu4)2,-0.192389780517242
mp-30439,Ta6Be15Cu8,-0.199455715827586
mp-10428,Cu8SiSe6,-0.313336529604166
mp-13872,Cu8SiS6,-0.322508141499999
mp-5546,Cu8GeS6,-0.367151567666666
mp-676599,Cu8NO11,-0.8606078325000001
mp-2228998,Mg(CuO)8,-0.98475447617647
mp-1197658,Ba4Cu8P15,-0.47744089114417904
mp-14785,Ba(Cu2P)4,-0.285302099120877
mp-14786,Ba(Cu2As)4,-0.21444591923077802
mp-1225860,Cu8GeSe6,-0.290877526270833
mp-1099795,Ba7Sr(Cu2O5)4,-1.825846905833333
mp-1216462,Zn7Cu8(MoO4)12,-1.6877300160000002
mp-1201149,Fe2Cu8P4O21,-1.732204852387754
mp-1221082,Rb4Cu8(GeS4)3,-0.759429638148147
mp-1219160,Sm6Cu8P8O3,-1.313458464085713
mp-1219867,Pr6Cu8P8O3,-1.2897991516857141
mp-1099824,Ba7Sr(CuO3)8,-1.667837127
mp-686590,Sr16Cu8BC7O40,-2.411980010891204
mp-1218669,Sr6Y3Fe(Cu4O11)2,-2.230036240999999
mp-1228147,Ba4PrY(CuO2)8,-2.018621170055555
mp-1228371,Ba8Ca4Cu8Hg4O25,-1.996043782142858
mp-1195601,K5Na3Cu8(S2O9)4,-1.8012154540064662
mp-608239,Cu8Ge5C4(S2N)8,-0.011515292073170001
mp-1228284,BaSr3Cu8(BO3)8,-2.282027969166666
mp-1196630,FeCu8Sb3S13N6,0.38756758749999903
mp-1211931,MnCu8Sb3S13N6,0.48138438393132604
mp-1213576,Cu8NiSb3S13N6,0.446960714435483
mp-1228248,Ba4NdY(CuO2)8,-2.023510272583333
mp-1228514,BaMg2V6(Cu4O13)2,-1.937416776744187
mp-1100841,Sr16La3Co11(Cu4O23)2,-2.095431054464286
mp-603276,NaSr7Cu8(SF)8,-2.226603432855603
mp-1218785,Sr8Ca3NdTl2Cu8(PbO14)2,-2.122127271618589
mp-673255,Cu9Se8,-0.17552827632353202
mp-685107,Cu9Se5,-0.074907410200893
mp-685108,Cu9S5,-0.12385038645089301
mp-936248,Cu9Se8,-0.028287302205883002
mp-1045694,Cu9O13,-0.6665849043181821
mp-685056,Cu9S16,0.37695897645416804
mp-542333,Cu9S5,-0.155011724308035
mp-673655,Cu9Se5,-0.088991285915178
mp-684710,Cu9S5,-0.17755268716517802
mp-1197621,Ga4Cu9,-0.11985828596154001
mp-1246371,Cu9As4,0.10818296211538601
mp-683917,In4Cu9,-0.009417007142856001
mp-1173070,Cu9Se5,-0.07753550377232
mp-504587,Fe9Cu9S16,-0.5068481223529401
mp-1045653,Mg2Cu9O13,-1.155619659791667
mp-1045659,Zn2Cu9O13,-0.9333882572916671
mp-1045684,Ca2Cu9O13,-1.238310128541666
mp-1190573,CaCd2Cu9,-0.062083939999999005
mp-1191054,PrCd2Cu9,-0.08907685097222101
mp-1209644,SmIn2Cu9,-0.15887743958333
mp-1210043,PrIn2Cu9,-0.154347476597228
mp-1210539,NdIn2Cu9,-0.161955888333345
mp-1211998,LaIn2Cu9,-0.135304929444444
mp-1213603,GdIn2Cu9,-0.14868261833332702
mp-1213802,CeMn2Cu9,0.0013873745114870001
mp-11142,SrCu9Si4,-0.199613096428571
mp-11143,BaCu9Si4,-0.171180671071428
mp-11144,SrCu9Ge4,-0.155742497142857
mp-11145,BaCu9Ge4,-0.145442860714285
mp-1192662,SrCu9Sn4,-0.136937272142856
mp-1192715,BaCu9Sn4,-0.14049464464285602
mp-1210048,PrCu9Sn4,0.002749741309523
mp-1212245,LaCu9Sn4,-0.02214231928571
mp-1215076,CeCu9Sn4,0.032043634642857005
mp-568497,EuCu9Sn4,-0.14019546714285602
mp-571034,CaCu9Sn4,-0.112890508571428
mp-607080,NdCu9Sn4,-0.146812188035713
mp-13218,YMg2Cu9,-0.16544268791666703
mp-13220,PrMg2Cu9,-0.156007577222222
mp-13221,NdMg2Cu9,-0.161846879374998
mp-13222,SmMg2Cu9,-0.166958945833332
mp-13223,EuMg2Cu9,-0.13078765083333302
mp-13225,DyMg2Cu9,-0.16754234513888802
mp-13226,HoMg2Cu9,-0.16903356624999902
mp-510643,LaMg2Cu9,-0.16174857625000702
mp-542933,TbMg2Cu9,-0.170708103472221
mp-542934,CeMg2Cu9,-0.114479988645832
mp-26304,Cu9(PO4)8,-1.8679906142274052
mp-849992,La20Cu9O40,-3.016170005652176
mp-1226915,Ce2(MnCu3)3,0.171286857139778
mp-1221285,Pr2(InCu3)3,-0.22718367738095102
mp-1221949,Nd2(InCu3)3,-0.23409569053572202
mp-1224933,La2(InCu3)3,-0.20802357589285603
mp-531291,Ta16(Cu3O16)3,-2.741855248045662
mp-677803,In11Cu9Se20,-0.535491053281253
mp-1228592,Ba4Nd5Cu9O22,-2.221558339687499
mp-558647,Cu9Se4(Cl3O7)2,-1.028227847253787
mp-1225890,Cu9Sb(AsS6)2,-0.454929984791666
mp-680211,Cu9Se4(Cl3O7)2,-1.019539036344696
mp-1216233,Y2Ti12(CuO4)9,-2.713519772881356
mp-1216965,Tm2Ti12(CuO4)9,-2.715718284406779
mp-1217434,Ti12Cu9(BiO18)2,-2.508431548305085
mp-1219316,Sm2Ti12(CuO4)9,-2.719798642881357
mp-1220529,Nd2Ti12(CuO4)9,-2.716349748559323
mp-1222714,Lu2Ti12(CuO4)9,-2.7114665409039542
mp-1224439,Ho2Ti12(CuO4)9,-2.7180944230508493
mp-1225647,Dy2Ti12(CuO4)9,-2.719789795480226
mp-1225949,Er2Ti12(CuO4)9,-2.71751210101695
mp-1226218,Gd2Ti12(CuO4)9,-2.714581798644068
mp-1226871,Eu2Ti12(CuO4)9,-2.65164861881356
mp-1191086,Nd2Mn3Cu9P7,-0.41697163339490906
mp-1191350,Pr2Mn3Cu9P7,-0.39279876522030505
mp-1191383,Dy2Mn3Cu9P7,-0.41852616093459005
mp-1191431,La2Mn3Cu9P7,-0.43463665744252805
mp-1191913,Ce2Mn3Cu9As7,-0.30160402839491
mp-1191920,Pr2Mn3Cu9As7,-0.300424387601259
mp-1192050,La2Mn3Cu9As7,-0.32885396839491104
mp-1192171,Nd2Mn3Cu9As7,-0.301613065775862
mp-1192355,Ce2Mn3Cu9P7,-0.42764681934729004
mp-1196185,V4Cu9(ClO9)2,-1.5068392187878792
mp-1228278,Ba6Y3Cu9O20,-2.189296283947368
mp-26303,Li6Cu9(PO4)8,-2.123253203584415
mp-554562,Ti2Cu9(B3O11)2,-2.023926583119657
mp-560368,Na6Cu9(PO4)8,-2.100316381371249
mp-740764,Cu9P4(HO10)2,-1.66396147260204
mp-762439,Li14Cu9(P2O7)8,-2.333269034115288
mp-766403,Mg3Cu9(SiO3)16,-2.488460390328947
mp-774722,LiLa20Cu9O40,-3.019460539761906
mp-883223,Cu9P4(HO10)2,-0.15801323403061202
mp-1191456,Sm2Mn3Cu9P7,-0.40674482172824206
mp-1191830,Tb2Mn3Cu9P7,-0.42050747712506703
mp-1224553,K8Cu9S8(ClO18)2,-1.767616892825397
mp-1229252,Ba3La3Pr3Cu9O22,-2.307833212249998
mp-677030,Ba9La9Cu9Ru9O46,-2.14666188664634
mp-1218674,Sr8Pr4Cu9(HgO8)3,-2.158484141545139
mp-1228760,Ba6Ca6Cu9Hg3O25,-2.021393518214285
mp-680433,Ba6Ca6Tl5Cu9O29,-1.954417962030303
mp-774516,Li8Mg3Cu9(SiO3)16,-2.596846454662699
mp-1219824,Rb2V6CdCu9O26,-1.701496190568182
mp-1224519,K2V6CdCu9O26,-1.702709460556818
mp-646039,In7Cu10,-0.043822473823531
mp-569339,Cu10Sn3,0.20365704769230702
mp-1225831,Cu10N3,0.197458948846155
mp-568495,Cu10Sn3,0.021947803461537
mp-2004,Cu10Sb3,0.049920264230770006
mp-30597,Cu10Sn3,0.03160750653846
mp-1188077,Zr7Cu10,-0.158314540000001
mp-1200988,Hf7Cu10,-0.17838130117647003
mp-1100992,V12Cu10O33,-1.76884941009091
mp-618788,Ba(Cu5P2)2,-0.214332698238094
mp-675164,La12Cu10O31,-2.544077274056603
mp-1219826,PrMnCu10,-0.031092939549807002
mp-757768,Cu10Bi25O48,-1.454830717951808
mp-909302,Ba(Cu5P2)2,-0.21930115590476001
mp-1350717,Zn3Cu10(TeO6)6,-1.116865756000001
mp-2220275,MgCu10(P3O13)2,-1.840284247508305
mp-2220327,MgCu10(P3O13)2,-1.8102174937873752
mp-1215797,Zn2Cu10Sb4S13,-0.48342510405172306
mp-1222021,Mn2Cu10Sb4S13,-0.380574081360948
mp-1224745,Fe2Cu10Sb4S13,-0.423509251982757
mp-1226169,Cu10Hg2Sb4S13,-0.416553189396551
mp-1227581,Cd2Cu10Sb4S13,-0.32793177289087305
mp-2220421,MgCu10(P3O13)2,-1.7866511835548171
mp-1216401,ZnFe4Cu10(SnS4)5,-0.606076928374999
mp-1196322,CaCu10Te4(As2O17)2,-1.173195198616352
mp-1229139,Ba10Ca5Cu10Hg5O31,-1.999383450286885
mp-1216244,Zn2Fe3Cu10(SnSe4)5,-0.541197945046874
mp-1223608,Mn2Fe3Cu10(SnS4)5,-0.6054817277715501
mp-1227787,Cd3Fe2Cu10(SnSe4)5,-0.48674672354687404
mp-1229296,Cd2Fe3Cu10(SnSe4)5,-0.5270713547968741
mp-1216071,Zn2Cu10Sn5Hg3S20,-0.6019061065624991
mp-1216234,Zn4FeCu10(GeS4)5,-0.6752514148749991
mp-1216277,Zn4FeCu10(SnSe4)5,-0.5980181912968751
mp-1216393,Zn3Fe2Cu10(SnSe4)5,-0.5695478800468741
mp-1228871,CdFe4Cu10(SnSe4)5,-0.505139069296874
mp-1229234,Cd4FeCu10(SnSe4)5,-0.574025191046875
mp-532700,Sr3La21Zn2(Cu5O24)2,-2.933674733869047
mp-1222130,MnCo4Cu10(SnS4)5,-0.5809457635732751
mp-1228572,CdFe4Cu10(SnSe4)5,-0.507909290046875
mp-1188928,In9Cu11,-0.036334028000001004
mp-1224313,In9Cu11,-0.016017111167857
mp-684964,Cu11S20,0.083892421905243
mp-30596,Cu11Sb3,0.041191995357144004
mp-675278,Cu11S16,0.010921368977623
mp-759736,Mn13Cu11O32,-1.528273872198275
mp-1105864,Cu11PdN4,0.23217075348214003
mp-1181591,Cu11PdN4,0.45524871598214206
mp-1188488,Cu11PdN4,0.5370837359821411
mp-1202727,Cu11PdN4,0.5361858694196411
mp-1224525,Li12Cu11As12,-0.44181742942857205
mp-1225618,Er2Ga6Cu11,-0.280388550543198
mp-1207653,Yb3Cu11Si4,-0.36292638055555704
mp-1207856,Y3Cu11Si4,-0.347030642777771
mp-1208077,Tm3Cu11Si4,-0.36105487055555
mp-1211151,Lu3Cu11Si4,-0.320194706111111
mp-1212415,Ho3Cu11Si4,-0.353594568888881
mp-1212927,Er3Cu11Si4,-0.36154739027777605
mp-1212995,Dy3Cu11Si4,-0.351107306111104
mp-1213972,Cr4Cu11O30,-0.988031655333333
mp-15387,Ba6Cu11F34,-2.659405699215693
mp-29507,V6Cu11O26,-1.579165843488373
mp-867628,Y6Cu11O24,-2.056250776097561
mp-758194,Mg4Cu11O15,-1.435503373
mp-776258,Mg4Cu11O15,-1.436074971499999
mp-1227915,Ce2Cu11Au,-0.16350054499999903
mp-569136,K3Cu11Te16,-0.44867520261388705
mp-676076,Cu11Sb4S13,-0.23292578728794702
mp-758061,Co25Cu11O48,-1.200613393928571
mp-686328,Ba6Fe14Cu11S27,-0.891555477974137
mp-1228217,Ba4Cu11(Te4S)2,-0.8302593907333321
mp-1215879,Zn4Cu11(SnSe4)5,-0.604535106296874
mp-1228570,Ba4Ca8Cu11CO20,-1.8392551839772722
mp-1173193,Sr8Y4Cu11CO28,-2.285250132788461
mp-1225920,Cu12As4S13,-0.28901777440494003
mp-28807,Na7(Cu6S5)2,-0.7207443692984531
mp-766483,Li7(Cu6S5)2,-0.734440714425286
mp-1188468,Cu12PdN4,0.368010915630251
mp-1189362,Dy2Ga5Cu12,-0.25465991923444503
mp-504753,Cu12As4S13,-0.277579180915948
mp-647164,Cu12Sb4S13,-0.29932473332974
mp-1192952,LaBeCu12,-0.10654900678571401
mp-13486,LaCoCu12,-0.076066935714292
mp-1223412,LaCeCu12,-0.11315271071428801
mp-1228425,Ba8Y4(Cu4O9)3,-2.19210558127451
mp-1229327,Ba8Gd4(Cu4O9)3,-2.182020990490195