material_id,formula,formation_energy_per_atom
mp-1096705,CaZnAu2,0.5806072525
mp-1097087,HfCdAu2,1.457573340347245
mp-1097088,InAgAu2,0.88988167236112
mp-1097183,LiPbAu2,0.878614751666667
mp-1097190,HfTiAu2,2.25969545055058
mp-1097196,ZnNiAu2,1.3998696925
mp-1097200,TiGaAu2,1.428817479791666
mp-1097205,MgInAu2,0.649498577083333
mp-1097215,SrCdAu2,0.52376533
mp-1097223,YZnAu2,0.9913899032626851
mp-1097226,MnPdAu2,1.585645443017241
mp-1097242,YScAu2,1.465533856250004
mp-1097247,KRbAu2,0.1522364038125
mp-1097262,LaMgAu2,1.0585500275
mp-1097283,LiHfAu2,1.476641013333335
mp-1097353,YBiAu2,1.140405132291668
mp-1097355,LaScAu2,1.44486557
mp-1097364,ZrScAu2,1.9010227424999862
mp-1097436,YZrAu2,1.865988748749991
mp-1097481,LaSbAu2,1.04667357375
mp-1097485,CaLaAu2,1.03842133375
mp-1097508,LaZrAu2,1.893018083749999
mp-1097524,CdAgAu2,0.9175168336574301
mp-1097567,HfGaAu2,1.643656207916663
mp-1097576,CaTlAu2,0.558213011666666
mp-1097586,AgSnAu2,1.181454079999994
mp-1097621,LiMnAu2,0.9063626264798861
mp-1097627,ScHgAu2,0.854770767500006
mp-1097637,ZnCdAu2,0.7319188962500001
mp-1098700,KLaAu2,0.820681076937499
mp-28719,Ba(AuF4)2,-2.209939348181815
mp-2898,Ca(AuO2)2,-1.466215879285709
mp-9297,Ba(AuO2)2,-1.445636781428571
mp-9298,Sr(AuO2)2,-1.477021438571423
mp-1102450,Sr(AuO4)2,-0.546673442727272
mp-1190864,BaAu2(SO4)4,-1.745518992608695
mp-1202806,MgHAu2F11,-1.8567445345833322
mp-738288,ZnAu2(Cl4O)2,-0.15728468423076902
mp-1197529,SrAu2(SO4)4,-1.746705066086956
mp-2223086,MgV2(AuS2)2,-0.9432543549999991
mp-2240167,MgV2(AuS2)2,-0.9368572283333331
mp-1226640,CeU(Pt4Au)2,-0.9992945391666641
mp-1226759,CdIn2SnAu2,-0.248311259999998
mp-647252,ZnAu2(CN)4,0.141874014696968
mp-542891,ZnAu2(CN)4,0.138354523333332
mp-570037,CoAu2(CN)4,0.252718088068184
mp-1105104,PdAu2(NCl2)4,1.027056352666666
mp-1193919,Sb3Au2Xe2F19,-2.097579008653846
mp-1475733,PdAu2(NCl2)4,1.267115365999999
mp-557121,K2Sn(AuS2)2,-0.8999656099444431
mp-1194889,MgAu2(SO4)4,-1.654320421956522
mp-1229181,Ag6Au2Se3S,-0.01587173291666
mp-561641,Cs2Sn(AuS2)2,-0.9287382332567041
mp-555392,K6NaAu2IO8,-1.43839168415996
mp-1219841,Ru2Au2N10Cl12O,0.744918959814814
mp-1219963,Rh2Au2N10Cl12O,0.8981469975925921
mp-1180441,MnAu2C4(N2O)2,0.259015315543766
mp-1194676,ZnH24Au2C12S8(NCl)4,-0.29336670990909103
mp-1183201,Au3Cl,0.280503911875001
mp-1183224,AgAu3,-0.063135743750002
mp-1183643,CdAu3,-0.15000073000000202
mp-1184375,EuAu3,-0.52831075625
mp-1185848,MgAu3,-0.388537566250001
mp-1186109,NaAu3,-0.212274088749999
mp-1186365,OsAu3,0.6549660350000011
mp-1186366,PAu3,0.293499575505947
mp-1186925,SbAu3,0.097950678750002
mp-1187512,TiAu3,-0.31275068166666303
mp-1187758,WAu3,0.5145121075000031
mp-973839,PdAu3,-0.096254770000001
mp-974364,RuAu3,0.365786297500001
mp-974584,ReAu3,0.655107361250003
mp-975909,LiAu3,-0.37749018416666
mp-978969,TlAu3,0.077672596249996
mp-984614,Au3Br,0.22176595375000002
mp-17407,Au3F8,-1.089517318181818
mp-30368,Ca5Au3,-0.7121120562499991
mp-30371,Cd5Au3,-0.20018613062499901
mp-568944,Yb5Au3,-0.7737768674999971
mp-669566,ZnAu3,-0.15800165999999602
mp-1017579,In2Au3,-0.22412988400000103
mp-1206431,In2Au3,-0.13588202400000002
mp-1221687,MnAu3,-0.16128096862068703
mp-1106137,Eu7Au3,-0.534830038500004
mp-30422,Sr7Au3,-0.517273361500002
mp-1223816,InAu3,-0.013750571136363
mp-1223936,HgAu3,0.076571181124997
mp-1224335,GeAu3,0.082164756249994
mp-1183348,Au3Br,0.170988886249999
mp-1184419,EuAu3,-0.547882249999998
mp-1184705,HgAu3,0.041530125624994
mp-1184712,GeAu3,0.071612962499997
mp-1185333,LiAu3,-0.37645394541666305
mp-1186010,MnAu3,-0.256872398620686
mp-1186115,NaAu3,-0.21097150624999703
mp-1186369,PAu3,0.281731391755947
mp-1186447,PdAu3,-0.084662152500001
mp-1187741,VAu3,-0.0074676312500010006
mp-861592,PuAu3,-0.562855798437503
mp-862985,PmAu3,-0.7353145518749991
mp-864901,LaAu3,-0.683693155000001
mp-864935,MgAu3,-0.39245185125000104
mp-865144,CdAu3,-0.153912301249995
mp-865180,ThAu3,-0.631646129999996
mp-865572,CeAu3,-0.583065826249996
mp-866076,NdAu3,-0.650295180624997
mp-867838,AcAu3,-0.771291945625002
mp-972868,SiAu3,0.16632210749999302
mp-972895,ScAu3,-0.6308624287499921
mp-974365,RuAu3,0.39021503499999705
mp-976806,NiAu3,0.08884928249999201
mp-979985,YbAu3,-0.7482702000000001
mp-980109,SnAu3,-0.005658042500002
mp-984353,AsAu3,0.150763255000001
mp-984358,Au3O,0.196535863749999
mp-984597,Au3S,0.315489558046877
mp-985287,AgAu3,-0.053704511250003
mp-971657,Au3N,0.692981135000003
mp-11248,LiAu3,-0.38172735166666105
mp-1185846,MgAu3,-0.383665698749999
mp-1186917,SbAu3,0.10133904874999901
mp-1187508,TlAu3,0.10586131624999201
mp-1206376,MnAu3,-0.19753153612068503
mp-1206590,CoAu3,0.23450409124999502
mp-1264,CdAu3,-0.14286626500000202
mp-863750,AgAu3,-0.064884731250003
mp-973834,PdAu3,-0.09164175499999701
mp-976784,NiAu3,0.088920869999995
mp-977310,OsAu3,0.6890121375
mp-983539,BeAu3,0.080005123749999
mp-1183146,BAu3,0.876944082708334
mp-1183462,CaAu3,-0.5512218575000031
mp-1184365,EuAu3,-0.526885151250001
mp-1184584,GeAu3,0.13271842249999802
mp-1186538,PmAu3,-0.712734601874998
mp-1186664,PuAu3,-0.075905547187502
mp-1186977,ScAu3,-0.6232297012499971
mp-1186998,SiAu3,0.16429186749999702
mp-1187403,ThAu3,-0.619398065000002
mp-864613,NpAu3,-0.443336927187495
mp-865858,PaAu3,-0.42764949499999705
mp-973557,FeAu3,0.15367437250000002
mp-975073,NdAu3,-0.6357014293750001
mp-976113,LaAu3,-0.6680701387499971
mp-982246,PbAu3,0.028900653437503
mp-1025478,TbAu3,-0.7136540329166641
mp-1025526,LuAu3,-0.788045676666669
mp-1079296,HfAu3,-0.5250807150000011
mp-1079467,YAu3,-0.7728957912500001
mp-1079681,ZrAu3,-0.5621053487500021
mp-1080590,DyAu3,-0.716112184166663
mp-1080756,ErAu3,-0.790909730833334
mp-30386,HoAu3,-0.789885005000002
mp-30417,SmAu3,-0.690396818750001
mp-568247,TmAu3,-0.7942506437499971
mp-568823,YbAu3,-0.7966987574999961
mp-569683,InAu3,-0.149090706249999
mp-30369,Ca7Au3,-0.591584341225001
mp-30408,MgAu3,-0.398330083125003
mp-570017,MgAu3,-0.400315398249999
mp-1755,ZnAu3,-0.157601969999994
mp-11814,Rb2Au3,-0.29863914900000105
mp-8700,K2Au3,-0.375281917500001
mp-1247859,Ag5Au3S4,-0.096961325243057
mp-1247860,Ag5Au3S4,-0.042350291076388005
mp-1206197,Pr2(Sn2Au)3,-0.47381088121212006
mp-1227958,BaGeAu3,-0.511960961000002
mp-3245,SnP7Au3,-0.13375594962121
mp-1219199,Sm2Ga5Au3,-0.500811032749999
mp-1219847,Pr2Ga5Au3,-0.642558089083334
mp-1220399,Nd2Ga5Au3,-0.5174892562499991
mp-1223453,La2Ga5Au3,-0.5746603667500001
mp-1226987,Ce2Ga5Au3,-0.46906597074999806
mp-1206204,U2(SiAu)3,0.45491195500000103
mp-1208621,SrGa4Au3,-0.46365611500000004
mp-1209617,Sr2(GaAu)3,0.3598449546875
mp-1212681,EuGa4Au3,-0.46575122687499904
mp-1078860,SrGeAu3,-0.559157473999999
mp-30109,Sb2(AuF6)3,-1.9691912204347821
mp-1209453,Rb3Au3Br8,-1.19897530589286
mp-1209502,Rb3Au3I8,-0.9309373916071421
mp-1211803,K3Au3Br8,-1.172191671196426
mp-1211892,K3Au3I8,-0.9017522244107141
mp-1214844,Au3Br8N3,0.8500422742857141
mp-1215018,Au3I8N3,0.896835948214285
mp-27301,Rb3Au3Cl8,-1.393393388749999
mp-1228259,Ba8Si43Au3,-0.208132313148148
mp-674940,La12Au3I13,-1.356989989107143
mp-9384,CsAu3S2,-0.5690842609375011
mp-9385,RbAu3Se2,-0.6087765286979101
mp-9386,CsAu3Se2,-0.540020384687499
mp-9273,K3Sb2Au3,-0.5525112789062511
mp-9274,Rb3Sb2Au3,-0.46199760906249904
mp-28993,La(AuF4)3,-2.1448387053125
mp-31301,LiSn4Au3,-0.282338886041664
mp-1209343,Sr2In4Au3,-0.53603515018518
mp-12815,Na2LiAu3,-0.46987489944444305
mp-13673,NaSiAu3,-0.304091855999996
mp-13674,NaGeAu3,-0.266376418249996
mp-567485,CaGaAu3,-0.6220695137500001
mp-1105248,Sm3Bi4Au3,-0.7036796925000011
mp-1105252,Pr3Bi4Au3,-0.735627228000007
mp-1105333,La3Bi4Au3,-0.8217897310000051
mp-1105400,Nd3Bi4Au3,-0.728595624250003
mp-1105587,Ce3Bi4Au3,-0.660964651
mp-1105695,Er3Sb4Au3,-0.8228336082142781
mp-1106363,Ho3Sb4Au3,-0.914177678999999
mp-1188599,Gd3Sb4Au3,-0.8441945809999991
mp-1188816,U3Sn4Au3,-0.144780343999997
mp-1188981,Tm3Sb4Au3,-0.874198408
mp-1189199,Lu3Sb4Au3,-0.826305456999995
mp-1190030,La3Sb4Au3,-0.9591918264999991
mp-13654,Y3Sb4Au3,-0.9369433720000071
mp-861503,Pr3Sb4Au3,-0.8770934129999911
mp-979979,Sm3Sb4Au3,-0.8591050584999991
mp-984350,Dy3Sb4Au3,-0.807921742499996
mp-17815,Ba4Si20Au3,-0.284727966481481
mp-21839,Ba4Ge20Au3,-0.321703033333332
mp-1219834,Pr2SbAu3,-0.7912829488888881
mp-1223122,La2SbAu3,-0.860475635
mp-1226895,Ce2SbAu3,-0.716979846666665
mp-1216725,UPt2Au3,-0.373890414722202
mp-1226653,CePt2Au3,-0.5829639266666621
mp-1220758,Nb12IrAu3,-0.157680153124998
mp-1224715,Fe2(PdAu)3,-0.001348064999999
mp-867851,Rb2TlAu3,-0.27552440388888605
mp-29920,Rb5Au3O2,-0.8579937192500021
mp-570936,K(SnAu)3,-0.281010533892858
mp-581716,Sr(InAu)3,-0.467596316428572
mp-606777,Eu(InAu)3,-0.45269467285712905
mp-1191301,RbGa2Au3,-0.33425091500000004
mp-1191527,CsGa2Au3,-0.316817234942528
mp-1209007,SrIn5Au3,-0.355975061759258
mp-606503,Ca3InAu3,-0.824171309285714
mp-630875,Ca2In4Au3,-0.6128993983333411
mp-554764,Sb3Au3F22,-2.118236940446428
mp-1104310,Tb3Ga8Au3,-0.556228832142855
mp-1104332,Er3Ga8Au3,-0.585837396476193
mp-1218850,Sr2CdAu3,-0.651086433333336
mp-1182497,Au3N3(Cl6O)2,-0.2969859595
mp-1202926,Au3N3(Cl6O)2,0.29774528450000004
mp-570536,Rb2AgAu3I8,-0.758084205476187
mp-1227195,Ce3Mg2InAu3,-0.5790030385185171
mp-558739,RbSb2Au3S5,-0.6074913829545441
mp-1183003,Ag2Au3N6Cl17,0.6387050524999941
mp-1194538,Nd10As8Au3O10,-2.409683300806451
mp-1194552,Sm10As8Au3O10,-2.444783416451613
mp-1211770,KCdAu3(CN)6,0.071965210784319
mp-567861,KNiAu3(CN)6,0.088485367808824
mp-568906,KCoAu3(CN)6,0.09524105251470501
mp-1196045,GdAu3C6(N2O)3,0.19673949947368402
mp-571248,Cs2NaAu3(CN)6,-0.193190285316092
mp-542688,LaH6Au3C6(N2O)3,-0.537345905500001
mp-571264,Ca5Au4,-0.800555118333335
mp-12699,Ca3Au4,-0.8282316014285731
mp-12788,Nd3Au4,-0.808723337500002
mp-865377,Th3Au4,-0.6677042071428531
mp-1215575,ZnAu4,-0.067985159000005
mp-1220390,NbAu4,-0.027056962
mp-1221711,MnAu4,-0.12653325089654502
mp-1223945,HgAu4,0.054645634499996
mp-1226077,CoAu4,0.151584931000002
mp-567395,Li15Au4,-0.35368359289473605
mp-1172826,ZrAu4,-0.283000742500001
mp-17813,ZrAu4,-0.47588021550000104
mp-1219114,Sn9Au4,0.081127862307692
mp-1068348,TmAu4,-0.658681100000001
mp-1068446,ScAu4,-0.588137915000004
mp-1068773,LuAu4,-0.657345983333334
mp-1069697,VAu4,-0.077751367999997
mp-1070583,ErAu4,-0.6540795566666701
mp-1070789,CrAu4,-0.070824973999998
mp-11262,YbAu4,-0.6652043629999981
mp-12565,MnAu4,-0.239417388896549
mp-12635,TiAu4,-0.311209871333329
mp-30387,HoAu4,-0.650833819000001
mp-1227912,Ca11(Cd9Au2)2,-0.40854129909090703
mp-601420,Ce(SiAu2)2,-0.44623945678571303
mp-1229158,Ag(Te5Au2)2,-0.063283909916655
mp-30402,K(SnAu2)2,-0.244568708892856
mp-1077954,Ce(ZnAu2)2,-0.48879063714285803
mp-1078064,Ca(CdAu2)2,-0.43805657857142305
mp-1194038,Na(GaAu2)2,-0.28174370876847205
mp-20804,Rb(InAu2)2,-0.26451472226190403
mp-21134,K(InAu2)2,-0.28343882579761803
mp-1224151,In3Sn3Au4,-0.18508713706249202
mp-567545,K(In3Au2)2,-0.257564454295453
mp-568168,Rb(In3Au2)2,-0.247203897045451
mp-1213974,CaBiAu4,-0.43226899416667103
mp-1223891,In3SnAu4,-0.23183188999999502
mp-1216085,Y3(ZnAu2)2,-0.806349250000001
mp-29898,Tl2Au4S3,-0.40882017379629804
mp-569496,Ce(SiAu2)2,-0.461635238571424
mp-570068,K(Sn3Au2)2,-0.236488186113632
mp-1215852,YbEu(SiAu)4,-0.559771082000003
mp-557832,K2Cd(AuS)4,-0.751294832227271
mp-1232974,LiAu4Se4(ClO3)4,-0.9653758357083331
mp-1233222,MgAu4Se4(ClO3)4,-1.026190796975
mp-1233629,MgAu4Se4(ClO3)4,-1.006094438975
mp-1233961,MgAu4Se4(ClO3)4,-1.048818643375
mp-1234009,MgAu4Se4(ClO3)4,-1.020170966575
mp-1234080,MgAu4Se4(ClO3)4,-0.9970866497750001
mp-1234154,MgAu4Se4(ClO3)4,-1.062448297375
mp-1234333,MgAu4Se4(ClO3)4,-1.030903910175
mp-1234385,MgAu4Se4(ClO3)4,-1.009367781775
mp-1234428,MgAu4Se4(ClO3)4,-1.035607794975
mp-1234500,MgAu4Se4(ClO3)4,-1.075851496575
mp-1234732,MgAu4Se4(ClO3)4,-1.052221701375
mp-1235050,LiAu4Se4(ClO3)4,-0.9821015589083341
mp-1235220,LiAu4Se4(ClO3)4,-0.9801442569083331
mp-1235291,LiAu4Se4(ClO3)4,-0.9832107741083331
mp-1235328,LiAu4Se4(ClO3)4,-0.979282325308333
mp-1235582,LiAu4Se4(ClO3)4,-0.9798599637083341
mp-1236013,LiAu4Se4(ClO3)4,-0.9849683717083331
mp-1236160,LiAu4Se4(ClO3)4,-0.9733338357083331
mp-30410,Mn2Au5,-0.300842039852219
mp-1185695,MgAu5,-0.24803230250000202
mp-30418,SnAu5,-0.016507648333335
mp-1185852,MgAu5,-0.255084704166662
mp-1209,RbAu5,-0.18988399791667002
mp-1298,KAu5,-0.25602832062499603
mp-1831,SrAu5,-0.484339630000003
mp-30364,BaAu5,-0.44300406166667206
mp-510098,EuAu5,-0.42999690250000605
mp-568920,CaAu5,-0.452440076666666
mp-1193415,Cd8Au5,-0.151972696153843
mp-1207512,Zn3Au5,-0.184423372968744
mp-1218230,SrInAu5,-0.445289648095231
mp-1225324,EuCdAu5,-0.42426064928571505
mp-30309,Y2Au5F21,-2.080512508214286
mp-1189061,Y3MnAu5,-0.7713598336590181
mp-1192476,CsGa9Au5,-0.260805081810345
mp-1213210,Dy2Au5F21,-2.231789578511904
mp-541347,Er2Au5F21,-2.228142117142857
mp-541348,Tb2Au5F21,-2.234468999583334
mp-541349,Ho2Au5F21,-2.229087597499999
mp-1220202,Nd4Zn3Au5,-0.689001724999999
mp-1227574,Ca4Cd3Au5,-0.6343471850000001
mp-28856,Na7Au5S6,-0.9059972015086201
mp-1198185,BaGe2Au5,-0.353779728124999
mp-1194575,Tb3ZnAu5,-0.794396480555551
mp-510075,Cs7Au5O2,-0.7007308605418691
mp-510076,Rb7Au5O2,-0.6940673616071451
mp-31471,K3PbAu5,-0.37176272125000404
mp-867331,K3InAu5,-0.32025175482407503
mp-976190,K3TlAu5,-0.287411333342588
mp-1215781,Yb4Ge3Au5,-0.845113278333334
mp-1217158,U2(PdAu)5,-0.357137743055564
mp-1227613,Ca4Ge3Au5,-0.7213274754166681
mp-14715,Pr2Au5F21,-2.232017286815476
mp-14716,Nd2Au5F21,-2.233580988303571
mp-3817,La2Au5F21,-2.262270037232142
mp-557090,Bi2Au5F21,-1.7513867525
mp-557726,Gd2Au5F21,-2.206013992499999
mp-8778,Sm2Au5F21,-2.225081326875
mp-1235465,Cs7LiAu5O2,-0.65134297872797
mp-561218,KP2Au5S8,-0.561467046658481
mp-1235134,Cs7LiAu5O2,-0.5788524840613031
mp-1233287,Cs7CaAu5O2,-0.577610839839081
mp-1235810,Cs7LiAu5O2,-0.6106592880613031
mp-1235902,Cs7LiAu5O2,-0.6091125047279701
mp-1236405,Cs7LiAu5O2,-0.612022901394636
mp-734296,K5Au5C10I2(N5O)2,1.452726538933822
mp-1091,SmAu6,-0.42189018714285903
mp-1199277,DyAu6,-0.40799249559524003
mp-1199447,HoAu6,-0.45736369428571505
mp-1201168,TbAu6,-0.411350410773806
mp-1103758,CeAu6,-0.378347973571433
mp-1104525,NdAu6,-0.41539709607142805
mp-569032,PrAu6,-0.41372518166666505
mp-1812,Hg5Au6,-0.001952477500005
mp-1227488,Ca(BiAu3)2,-0.28569867000000004
mp-1104686,Cs4Au6S5,-0.7809329449375011
mp-1190711,Sr2(ZnAu2)3,-0.550100250454545
mp-1191197,Sr2(GaAu2)3,-0.559684214772727
mp-29090,Rb4Au6S5,-0.817548776499999
mp-29341,K4Au6S5,-0.7493380739375001
mp-607437,Na2In5Au6,-0.27073627098143105
mp-1192602,Nd3Sn5Au6,-0.6093447401785701
mp-1193042,Ce3Sn5Au6,-0.5594447453571411
mp-867370,Pr3Sn5Au6,-0.6149476782142871
mp-1227364,Ca5(Si2Au3)2,-0.753492104333334
mp-567550,In3Au7,-0.17184914075757302
mp-571598,Ga2Au7,-0.08493474962962701
mp-31144,Rb3Au7,-0.276466496250004
mp-1218558,Sr4Sn9Au7,-0.519045985749999
mp-570238,P10Au7I,-0.15810278619047602
mp-30416,Rb4Sn2Au7,-0.35425984230769003
mp-510696,Cs4Sn2Au7,-0.42445675923076603
mp-9201,K4Ge2Au7,-0.34330075069230603
mp-27370,P10Au7I,-0.14371069952380802
mp-982883,Na6Cd16Au7,-0.19325359787158
mp-1228855,CsRb2Au7,-0.27177732146551503
mp-1214019,Ca3Ge4Au7,-0.5043915249999991
mp-1214042,Ca3Ge4Au7,-0.500368600357142
mp-1226978,Cd3Au8,0.0036040790403970005
mp-1227773,Ca3Ge3Au8,-0.5115259946428561
mp-1218548,Sr3Sn3Au8,-0.5560503710714281
mp-31484,K4GaAu8,-0.333098036653847
mp-1194481,Sr3Sn3Au8,-0.562878019642856
mp-1225487,K3(InAu)8,-0.244542607109648
mp-1199731,Ba4P15Au8,-0.462679513042327
mp-1227521,Ce3Y(InAu2)4,-0.631195188541665
mp-1223353,KRb(InAu2)4,-0.268511155101189
mp-1224390,HfAu9,-0.213183162999996
mp-680545,In4Au9,-0.158686871468524
mp-570807,Sr4In13Au9,-0.454885349871792
mp-1227416,Ca2(ZnAu3)3,-0.45036340500000105
mp-1214045,Ca3Ge2Au9,-0.522419461428569
mp-510099,In3Au10,-0.139674372692306
mp-1219349,Si3Au10,0.048124747692300004
mp-1212463,Hf7Au10,-0.627446350588242
mp-1227595,Ca2Bi3Au10,-0.36151248266665603
mp-1197200,Zn89(Cr2Au5)2,-0.06179773152912801
mp-645719,Ca4In3Au10,-0.6738033861764661
mp-607853,Na8In6Au11,-0.327715131141378
mp-1195947,K23(Sn3Au4)3,-0.30740733549431704
mp-1226957,Cd3InAu12,-0.14799343250000102
mp-1215804,Zn(InAu4)3,-0.14403835428973302
mp-1224155,In3SnAu12,-0.121627685625007
mp-1222172,Mg3Au13,-0.304194505937498
mp-1229219,Ag3Te32Au13,-0.088411267239569
mp-1222050,Na10Sn4Au13,-0.389025711851855
mp-1227757,Ca3BiAu14,-0.44327400027778
mp-1218804,Sr4In17Au15,-0.378770838425925
mp-1227148,Ca6Ge7Au15,-0.5069878741071421
mp-1201536,K12Sn4Au21,-0.33956050383783704
mp-1219336,Sr10In17Au27,-0.527026570432098
mp-30411,Mn9Au31,-0.238232049508616
mp-567586,Nd17Au36,-0.7675254248584901
mp-1222153,Na26(Ge3Au8)5,-0.34780163413579
mp-30407,Mg13Au41,-0.38610330175925806
mp-1222058,Na26Ge14Au41,-0.34963943888889804
mp-1203630,Ca13(Ge11Au25)2,-0.37385349341176405
mp-1217580,Th14Au51,-0.621927917692307
mp-1217878,Tb14Au51,-0.6337849503589731
mp-1219385,Sm14Au51,-0.632690324307692
mp-1220280,Pr14Au51,-0.62809252328205
mp-1220890,Nd14Au51,-0.634578737461535
mp-1223670,La14Au51,-0.6633894832307691
mp-1225861,Dy14Au51,-0.6271088494358951
mp-1095817,Na2HgAu,0.363151636249995
mp-1095820,InNi2Au,1.7786284356250022
mp-1095868,Mg2GaAu,1.013705325625
mp-1095903,LiAg2Au,1.106203929999999
mp-1095904,Ba2HgAu,0.705846716874998
mp-1095934,Ba2ZnAu,0.930235035
mp-1095946,Ag2HgAu,0.9339437568749951
mp-1095953,Zn2PtAu,1.1744217325
mp-1095965,YZn2Au,1.312737979313418
mp-1095978,Y2GaAu,1.8082283506249999
mp-1096031,Ba2TlAu,0.8333466141666651
mp-1096115,LiPd2Au,1.704336331250004
mp-1096182,Ca2CdAu,0.8491110825000011
mp-1096194,Tl2HgAu,0.682054018541663
mp-1096199,Y2PbAu,1.4747242510000191
mp-1096208,Zn2IrAu,1.63730440375
mp-1096255,HfNi2Au,2.097479173899991
mp-1096259,Zr2HgAu,2.443197639374998
mp-1096291,Sc2TlAu,1.6667006441666672
mp-1096321,Mg2ZnAu,0.8373164550000001
mp-1096329,Ag2PdAu,1.658512415833346
mp-1096393,LiGa2Au,0.904153043098961
mp-1096399,Ca2PtAu,0.5817465350000001
mp-1096416,Li2MgAu,0.732213627083333
mp-1096417,Li2PtAu,0.9531733041666641
mp-1096425,MgSc2Au,1.9062992487500001
mp-1096463,Sc2CdAu,1.864619072500001
mp-1096491,YPd2Au,1.214920023333348
mp-1096496,NaZn2Au,0.5759815982131641
mp-1096508,K2HgAu,0.24554234152083101
mp-1096556,Ti2MoAu,2.874179344166666
mp-1096580,Be2OsAu,2.5786257725
mp-1096590,K2CdAu,0.36624208667317804
mp-1096597,Mg2CdAu,0.7677312850000001
mp-1096655,ZrZn2Au,1.818573493750001
mp-1096657,Y2RhAu,1.5429144175
mp-1096660,ScPd2Au,1.259872226458366
mp-1096706,Sr2PdAu,0.6598520175
mp-1096753,Ca2HgAu,0.6727224981250011
mp-1097073,Sc2InAu,1.668594891250009
mp-1097090,Ca2PbAu,0.8795771350000011
mp-1097101,BePt2Au,2.14916768625
mp-1097104,Be2CoAu,2.00333624
mp-1097154,Y2HgAu,1.57639365562499
mp-1097162,Cs2AuBr,-0.7789088160775871
mp-1097182,Sr2PAu,0.355904069724708
mp-1097188,La2AgAu,1.627124387083332
mp-1097241,Mg2HgAu,0.6408393868749981
mp-1097276,LaAg2Au,1.500574790416667
mp-1097285,Cs2AgAu,0.24226075885057302
mp-1097294,LiBe2Au,1.519526271666666
mp-1097307,Zr2PtAu,2.192192848749989
mp-1097356,Y2PtAu,1.3301883312499991
mp-1097361,NaHg2Au,0.29275744406249504
mp-1097367,Ca2SnAu,0.874506138749999
mp-1097387,Li2RhAu,1.267476843666664
mp-1097459,Rb2AuBr,-0.7366824575
mp-1097515,K2AgAu,0.335919566145836
mp-1097526,LiHg2Au,0.32163002083333203
mp-1097538,Zr2PdAu,2.3715820472794142
mp-1097588,Zr2IrAu,2.395088404145845
mp-1097628,Be2IrAu,2.157754745
mp-1097642,Ba2AgAu,0.8311291620833331
mp-1097650,Zr2TcAu,2.735950660937501
mp-1097670,CdPd2Au,1.601165805000001
mp-1216919,UGaAu,-0.45453228333334006
mp-572767,CsAuF4,-1.9246664358333332
mp-15999,Li3AuS2,-1.206511225833334
mp-3257,KAuSe5,-0.33288938592410605
mp-3592,KAuS5,-0.40721415183035703
mp-28387,PAuCl8,-0.595116317047617
mp-1228509,Ba2In3Au,-0.5116634599999991
mp-1226400,Cr2Sn9Au,0.279944953645833
mp-1214780,AuXeF9,-0.9808667150000001
mp-30308,TlAuF6,-1.5551137635937482
mp-1219939,PdPb4Au,-0.138493770000006
mp-996959,LiAuO2,-1.237119229583332
mp-996977,AgAuO2,-0.43529505916666605
mp-1223761,La2Ga7Au,-0.5888280462500021
mp-1227436,Ca2Ga7Au,-0.502011446999998
mp-1188818,NaAu(IO3)4,-0.89000550118774