material_id,formula,formation_energy_per_atom
mp-631484,TaTiAl,0.7705011500000011
mp-631503,ZrAlW,0.683934473333323
mp-631514,AlB2Pb,1.762802246549995
mp-631543,AlInB,1.047582126033333
mp-631551,MnAlTc,0.45283255235632003
mp-631568,AlAgB,0.8454208495333331
mp-631582,AlTc2Pb,0.50111172
mp-961645,LiAlGe,0.04904599388888901
mp-961650,AlVNi,0.356573097456141
mp-961668,AlVPt,-0.13764821000000002
mp-961672,SrAlGa,0.345263411666666
mp-961679,TaAlPt,-0.014324575777777002
mp-961680,NbAlPt,-0.159647502833337
mp-999052,Ti2MnAl,-0.250023836149425
mp-999068,Ti2AlV,-0.12454579145833401
mp-999069,Ti2AlFe,-0.23221631416666602
mp-999072,Ti2AlZn,-0.014344134166666002
mp-999079,Ti2AlCu,-0.081409876458332
mp-999096,Ti2AlCr,-0.131580482083332
mp-1228945,AlCrGe,-0.025036292222222003
mp-14011,Al(PO3)3,-2.831248562321429
mp-10036,Ce3AlC,-0.347754207999997
mp-10037,AlCo3C,-0.20122812149999703
mp-10038,Er3AlC,1.445732053000001
mp-10039,Pr3AlC,-0.23128765722222203
mp-10040,AlPt3C,0.163335222500012
mp-10041,Tb3AlC,1.2828235299999982
mp-1017557,Dy3AlN,-1.087709248749999
mp-1017558,Er3AlN,-1.104468587749997
mp-1017577,Ho3AlN,-1.098518032749999
mp-1017627,Lu3AlN,-1.131227487749998
mp-1018638,Tb3AlN,-1.07354821175
mp-1018641,Tm3AlN,-1.124935117750001
mp-1024039,Mg3AlO4,-2.674385196875
mp-10600,La3AlC,-0.283068273499998
mp-10674,Sm3AlN,1.001796234249997
mp-10675,Ti3AlN,-1.026473475749999
mp-1068011,SrAlH3,0.23364325532142802
mp-1069273,Gd3AlN,1.016316430800003
mp-10881,Ce3AlN,-0.8997610077499981
mp-1094052,Sm3AlN,-0.9686063877500001
mp-1094072,Pr3AlN,-0.8458429647499991
mp-1097006,KAlH3,-0.081973535666665
mp-1147771,Al(CuN)3,-0.082109512678568
mp-1178268,GdAlO3,-3.613716829
mp-1183115,AcAlO3,-3.690019421500002
mp-1183128,AlVO3,-2.271212851
mp-1183132,AlSiO3,-2.154149702999999
mp-1183133,AlIrO3,-1.200752050999999
mp-1183134,AlSbO3,-2.269544728999999
mp-1183154,AlPbO3,-2.191318702999999
mp-1183159,AlAuO3,-1.400460893
mp-1183160,AlInO3,-2.2425046503333332
mp-1183169,AlAgO3,-1.615019715333333
mp-1183176,AlNiO3,-1.386456107
mp-1183283,BaAlO3,-2.895402251
mp-1184150,ErAlO3,-3.595122190999999
mp-1184936,KAlO3,-2.056392494449999
mp-1185313,LiAlO3,-2.104722441666666
mp-1185485,LuAlO3,-3.549526354333333
mp-1185841,MgAlO3,-2.537314224
mp-1186097,NaAlO3,-2.126357671275862
mp-1186110,NpAlO3,-3.2910525867500002
mp-1206123,AlFe3H,-0.20500472224999902
mp-1206360,Yb3AlC,-0.6206852850000011
mp-1206367,Ce3AlO,-1.405291576999998
mp-1206715,AlFe3B,-0.146577185833332
mp-1206753,AlFe3O,0.542747052999999
mp-1206767,AlFe3N,-0.310164052999998
mp-1206894,Lu3AlC,-0.48109708100000204
mp-1206996,La3AlO,-1.473911112000002
mp-1207055,Mn3AlN,-0.44415488375862106
mp-1207084,AlNi3C,-0.175228431499998
mp-1213829,Ce8AlPd24,-0.810771461931818
mp-1395974,AlVO3,-1.751975723000001
mp-1399724,MnAlO3,-1.430634494586207
mp-1413511,AlBiO3,-0.8888229550000001
mp-1416557,AlNiO3,-0.8944861109999991
mp-1417649,AlWO3,-1.451336168999998
mp-1418444,AlAgO3,-0.250836723333333
mp-1421498,AlFeO3,-1.162526192999999
mp-1421511,AlSbO3,-1.270632357
mp-14254,NdAlO3,-3.644979264499999
mp-1426094,AlSnO3,-1.353432764
mp-1433892,AlMoO3,-1.403197909
mp-1435808,AlCoO3,-1.043343859
mp-1475723,TiAlO3,-2.369078753666666
mp-1504314,AlCuO3,-0.848998753
mp-20684,Pr3AlN,1.015425827250001
mp-21910,Nd3AlN,1.008183712583331
mp-22793,AlFe3C,-0.159749470999999
mp-23080,AlBiO3,-2.432236615
mp-29676,Dy3AlC,-0.529014536999997
mp-29677,Ho3AlC,-0.40051357799999304
mp-3271,Ti3AlC,-0.591599556999995
mp-4079,Sc3AlC,-0.6796490030000001
mp-4448,Y3AlC,-0.39203290500000004
mp-4505,La3AlN,-0.9010594967499971
mp-4593,Mn3AlC,-0.19110724775862
mp-5304,LaAlO3,-3.719413138
mp-5323,CeAlO3,-3.603223498999999
mp-568021,Er3AlC,-0.430918176999999
mp-570822,Tb3AlC,-0.5037076540000011
mp-571330,Nd3AlC,-0.28244175450000103
mp-574239,Tm3AlC,1.332148068499981
mp-580539,Gd3AlC,-0.38686431999999504
mp-7144,Sm3AlC,-0.37786016400000005
mp-758371,YbAlO3,-3.51754615225
mp-8218,PrAlO3,-3.637824913333332
mp-972066,ZrAlO3,-2.946253523
mp-972367,UAlO3,-3.236607310999998
mp-973892,EuAlO3,-3.315465348000001
mp-975427,RbAlO3,-1.9253732725000001
mp-978862,SrAlO3,-3.031678721000001
mp-984723,DyAlO3,-3.617029635333332
mp-1064892,Zr2TiAl,-0.177245892916669
mp-1066394,AlCuTe2,0.20582470499999703
mp-1067509,AlCuS2,-0.071534237656248
mp-1067556,AlCuSe2,0.023868365468764002
mp-1079140,Al(NF2)3,-0.1422048095
mp-10872,HfAlAu2,-0.564644290555548
mp-10873,ScAlAu2,-0.705044028749999
mp-10883,AlCrCo2,-0.22062925874999803
mp-10884,AlFeCo2,-0.35879662500000004
mp-10885,AlCrNi2,-0.25891897624999904
mp-10887,HfAlCu2,-0.328564839999998
mp-10891,MnAlPd2,-0.593034279482758
mp-10893,MnAlPt2,-0.6880260594827581
mp-10894,MnAlRh2,-0.683740049482759
mp-10895,Mn2AlV,-0.317624613965518
mp-10898,ScAlNi2,-0.627430021249998
mp-10899,AlVNi2,-0.39258929145833504
mp-1095079,K3AlF6,-3.402247983774997
mp-1110736,Rb3AlBr6,-1.7909824242499992
mp-1110930,K3AlI6,-1.266776382175
mp-1111185,K3AlBr6,-1.758407436174999
mp-1111291,Li3AlF6,-3.306112348
mp-1111450,Na3AlCl6,-1.786026976999998
mp-1111502,K3AlCl6,-2.120414557174999
mp-1111945,Na3AlF6,-3.341237152
mp-1112379,Cs3AlBr6,-1.826127678896551
mp-1112654,Cs3AlI6,-1.356171234896552
mp-1113118,Cs3AlF6,-3.390822127999999
mp-1113233,Cs3AlCl6,-2.013091033499998
mp-1113633,Rb3AlF6,-3.395627361249998
mp-1113999,Rb3AlCl6,-2.14374696825
mp-1114162,Rb3AlI6,-1.30915006925
mp-11537,NbAlRu2,-0.7234191700000031
mp-1183148,AlGaCo2,-0.37386411499999905
mp-1183151,AlZnCu2,-0.15422425249999902
mp-1183158,AlGaIr2,-0.7508680024999991
mp-1183163,AlFeIr2,-0.485886752499999
mp-1183173,AlGaNi2,-0.5220558375000001
mp-1183187,AlFe2Ge,-0.211584308749999
mp-1183191,AlCuRh2,-0.574165619999998
mp-1183218,AlGaRu2,-0.5257573575000011
mp-1184084,Er2AlZn,-0.41935247541666903
mp-1184106,Er2AlCd,-0.337334309999998
mp-1184333,Gd2MgAl,-0.264912353750002
mp-1184403,Gd2AlCd,-0.37915017249999705
mp-1184427,Gd2AlZn,-0.372386588749999
mp-1184583,Ho2AlRu,-0.365661957499995
mp-1184596,Ho2AlCd,-0.333801394999997
mp-1184988,Li2SmAl,-0.21740801854166603
mp-1185001,Li2AcAl,-0.116891227222225
mp-1185007,LaAlAg2,-0.30083943166666605
mp-1185014,La2MgAl,-0.23856943875000103
mp-1185028,Li2CaAl,-0.12865339794642802
mp-1185126,Li2YAl,-0.213556509722222
mp-1185234,LiCe2Al,-0.08044246808333
mp-1185243,LiYb2Al,-0.24704360166666803
mp-1185304,LiAlZn2,-0.14278718916666702
mp-1185391,LiPr2Al,-0.206799297499998
mp-1185392,LiGd2Al,-0.21095196666666602
mp-1185458,LiSm2Al,-0.229923601666666
mp-1185509,LuAlCu2,-0.415212584166663
mp-1185826,MgAlAu2,-0.47838773125000006
mp-1185843,MgAlNi2,-0.411823771249999
mp-1186292,NdAlAg2,-0.32325708886466403
mp-1186389,PaAlFe2,-0.21299190749999802
mp-1186390,PaAlV2,-0.142235083749991
mp-1186432,Pm2AlCd,-0.39999437874999805
mp-1186435,Pm2AlGa,-0.514243256250001
mp-1186441,Pm2AlZn,-0.38399962749999905
mp-1186585,Pm2AlIn,-0.5071065262499981
mp-1186689,Pr2MgAl,-0.230185902083333
mp-1187402,ThAlCu2,-0.264187722499999
mp-1187418,Ti2AlW,-0.262540418333333
mp-1187453,Ti2AlNi,-0.270910676666666
mp-1187464,TiAlIr2,-0.907798535833331
mp-1187586,Tm2AlRu,-0.40816841750000304
mp-1187707,Y2AlCd,-0.35568877249999903
mp-1187708,Y2AlAg,-0.39002901375000204
mp-1187765,Y2AlRu,-0.33440944499999903
mp-1187809,YAlAu2,-0.806032865552545
mp-1187927,YbAlHg2,-0.31248530749999703
mp-1187931,YbAlZn2,-0.318200213750001
mp-1187937,YbAlAg2,-0.353864611249999
mp-11947,LiAlAg2,-0.23783073416666503
mp-1205591,AlAg3F6,-2.134454542500006
mp-1206362,HfAlPt2,-1.117120210625003
mp-1214804,AlCo2Ni,-0.22478804950000003
mp-16482,TiAlAu2,-0.47678674416666605
mp-16494,AlCrCu2,-0.015341943166667002
mp-16495,AlCrFe2,-0.164215934999999
mp-16497,ScAlCu2,-0.429006133749999
mp-16501,HfAlPd2,-0.852085152499999
mp-16524,ScAlPd2,-0.960797691249999
mp-31169,ScAlAg2,-0.328348003749999
mp-31185,MnAlFe2,-0.19067050448275802
mp-31186,AlFe2Ni,-0.09435004249999901
mp-31187,TiAlFe2,-0.45416650083333204
mp-3340,TaAlCo2,-0.46454584183332703
mp-3574,MnAlCu2,-0.13084941948275802
mp-3623,MnAlCo2,-0.356646874482758
mp-3736,ZrAlCu2,-0.352965232499999
mp-3909,ZrAlCo2,-0.5084106925
mp-3944,ZrAlNi2,-0.5980511674999931
mp-4771,TiAlCu2,-0.335837534166666
mp-4813,NbAlNi2,-0.431075287499998
mp-4922,MnAlNi2,-0.40436941198275805
mp-4955,AlVCo2,-0.44793970249999904
mp-505473,Al(Ni10B7)2,-0.27968089766666504
mp-5149,NbAlCo2,-0.4162606125
mp-5221,HfAlCo2,-0.5731287975
mp-5407,TiAlCo2,-0.6043146191666661
mp-541047,ZrAlPd2,-0.803114597499998
mp-5491,MnAlAu2,-0.24791825448275803
mp-5748,HfAlNi2,-0.6473235700000011
mp-5778,AlVFe2,-0.42876261999999904
mp-5921,TaAlNi2,-0.466782146833335
mp-640898,La6Mg22Al,-0.057727336206896004
mp-672259,AlFe2Mo,-0.1760317375
mp-7187,TiAlNi2,-0.623069183333332
mp-861507,ScAlIr2,-1.009155341249998
mp-861627,Ti2AlMo,-0.34524999583333305
mp-861637,Ti2AlTc,-0.513734560833331
mp-861640,Ti2AlRe,-0.510066803958334
mp-861657,Li2PrAl,-0.221982791249999
mp-861913,LiDy2Al,-0.24952011416666703
mp-861934,HoAlAg2,-0.326717519583329
mp-861946,Er2MgAl,-0.254361973749999
mp-861948,LiPm2Al,-0.22926582041666402
mp-861953,AlFeRh2,-0.595923447499998
mp-861991,PaMn2Al,-0.154147683965517
mp-862263,DyAlAg2,-0.327052793749999
mp-862287,BeAlRh2,-0.8688942487500011
mp-862288,AlFe2W,-0.20830292249999902
mp-862296,LiAlPt2,-1.020856209166666
mp-862297,LiAlRh2,-0.7054825141666641
mp-862445,TaAlOs2,-0.680675936833338
mp-862446,TaAlRu2,-0.832035074333337
mp-862486,Sc2AlOs,-0.48039860499999903
mp-862493,LiEr2Al,-0.23873919583333603
mp-862543,Sc2AlTc,-0.37082255625000005
mp-862546,Sc2AlRu,-0.529610327499999
mp-862548,Sc2AlZn,-0.424913742499999
mp-862555,LiY2Al,-0.261960931666667
mp-862602,ScAlCo2,-0.42680000125000106
mp-862632,LiCa2Al,-0.158353436666667
mp-862700,AlVOs2,-0.60377356
mp-862705,AlZnIr2,-0.693766981249999
mp-862717,LiAlAu2,-0.581746309166668
mp-862749,SmAlAg2,-0.330054905
mp-862778,AlSiRu2,-0.7554451362499991
mp-862781,AlCrRu2,-0.3686861925
mp-862836,PmAlAu2,-0.7121874918749991
mp-862837,PmAlAg2,-0.326297171874998
mp-862838,PmAlCu2,-0.31003742437499804
mp-862929,Li2PmAl,-0.229276615208334
mp-863698,Pm2MgAl,-0.254176395
mp-864610,Nd2MgAl,-0.24542743249999902
mp-864671,HfAlRh2,-1.097746739999998
mp-864674,Ho2AlZn,-0.373683097499997
mp-864780,PaAlAu2,-0.458836192499994
mp-864878,ZrAlAu2,-0.594448286249999
mp-864909,HfAlRu2,-0.8224986375000001
mp-864950,MnAlIr2,-0.5906594619827561
mp-864951,MnAlOs2,-0.261294584482758
mp-864980,MnAlRu2,-0.414138186982759
mp-864988,Mn2AlCr,-0.16105888646551703
mp-864989,Mn2AlRe,-0.197732694590518
mp-864990,Mn2AlW,-0.21519467146551602
mp-865006,Dy2MgAl,-0.25568068708333
mp-865011,Mn2NbAl,-0.25654126146551803
mp-865148,PaAlTc2,-0.38721710749999905
mp-865149,PaAlRu2,-0.604847784999996
mp-865152,MgAlPd2,-0.826217871249998
mp-865155,MgAlRh2,-0.834185793749998
mp-865159,Dy2AlZn,-0.42318652125000206
mp-865238,Lu2MgAl,-0.234523757083333
mp-865278,NbAlOs2,-0.555932304999998
mp-865280,NbAlFe2,-0.375754104999999
mp-865283,Tm2AlOs,-0.412836122500003
mp-865356,Tm2MgAl,-0.24390844875000503
mp-865441,TiAlPd2,-0.7750691391666641
mp-865442,TiAlOs2,-0.695056386666667
mp-865463,Lu2AlOs,-0.36748085833333205
mp-865504,YAlAg2,-0.344085607499998
mp-865531,TiMn2Al,-0.33561966979885105
mp-865560,Y2AlZn,-0.42292720125000105
mp-865602,Y2MgAl,-0.270610321249998
mp-865629,Li2CeAl,-0.10184905116666501
mp-865919,MgAlAg2,-0.167760192083331
mp-865921,MgAlIr2,-0.6935179262500011
mp-865966,BeAlIr2,-0.7749259637500001
mp-865968,CeAlAg2,-0.19952588833333101
mp-866001,AlVRu2,-0.730717902500003
mp-866017,LiNd2Al,-0.219571222916666
mp-866033,AlZnRh2,-0.8575285962499991
mp-866153,TiAlRh2,-0.983009850833333
mp-866155,TiAlRu2,-0.830631444166666
mp-866178,Li2NdAl,-0.22723082770833203
mp-866296,AlCuPd2,-0.6301237899999991
mp-867120,TaMn2Al,-0.301139298298851
mp-867249,TaAlFe2,-0.45033847183333103
mp-867272,LiAlCu2,-0.22127855583333303
mp-867277,Ho2MgAl,-0.25087807624999603
mp-867306,AlCuAu2,-0.25772352000000004
mp-867812,LiAlNi2,-0.368700581666667
mp-867820,LiAlPd2,-0.8191622916666641
mp-867873,LiTm2Al,-0.24169031166666902
mp-867878,AlFe2Si,-0.44477182749999905
mp-867894,Sm2MgAl,-0.25623876875
mp-867904,AlGeRu2,-0.517801542499999
mp-867922,ScAlRh2,-1.089973603749999
mp-971985,TbAlCu2,-0.377235755
mp-972272,TmAlAu2,-0.8127059820981941
mp-972504,Sm2AlZn,-0.352529827499999
mp-972877,Sc2AlIr,-0.736778934999999
mp-972884,Sc2AlCu,-0.347952827499996
mp-972907,Sc2AlAg,-0.369152458749999
mp-972914,Sc2AlCd,-0.387223779999999
mp-973058,LiLu2Al,-0.232217209999998
mp-973153,ScAlPt2,-1.114944566250001
mp-973538,Lu2AlZn,-0.414974569583332
mp-973625,Lu2AlTc,-0.31029451267361
mp-973631,Lu2AlRu,-0.43824792833333404
mp-973841,LiHo2Al,-0.247774739166665
mp-973874,LiLa2Al,-0.218679961666666
mp-973910,PaAlCu2,-0.153893172499998
mp-976931,LuAlAg2,-0.34279282916666803
mp-977394,TbAlAg2,-0.327462222499996
mp-977406,Ho2AlOs,-0.381098876106769
mp-977435,ZrAlRh2,-0.9449341024999991
mp-977436,ZrAlRu2,-0.7510221812500001
mp-977535,ErAlAg2,-0.33059408583333105
mp-977580,MgSc2Al,-0.27686316374999903
mp-978519,Sm2AlCd,-0.33365447999999903
mp-979012,Tm2AlZn,-0.42471074625000305
mp-980426,TmAlAg2,-0.353009867499999
mp-982559,HoAlAu2,-0.8148339622321281
mp-982870,HfAlIr2,-0.9256413600000001
mp-983358,HfAlFe2,-0.37188885999999904
mp-984682,Ce2MgAl,-0.084988476249998
mp-1045348,Al(CoS2)2,-0.659299016517853
mp-1084785,KAlO2,-2.843528194312499
mp-1191176,Zr3AlAu2,-0.5780230589725951
mp-1191450,Hf3AlAu2,-0.47949363754630203
mp-1215079,Al(NF3)4,-0.550486809999999
mp-1255006,Al(SnO2)2,-1.94892810642857
mp-1262424,Ti2AlO4,-3.170859260238094
mp-1401503,Al(CuO2)2,-1.667530472142856
mp-1402814,Mn2AlO4,-2.428006884408868
mp-14069,CsAlO2,-2.846654709913793
mp-14070,RbAlO2,-2.861165701874999
mp-14105,AlTlO2,-2.429437737083335
mp-1442788,Al(CoO2)2,-1.953348585
mp-19456,AlV2O4,-2.7117889364285723
mp-505623,Al(FeO2)2,-2.2173158007142852
mp-645193,Zr4AlNi2,0.125405056428572
mp-756851,AlCr2O4,-2.490556780714286
mp-768600,Al(NiO2)2,-1.911670162142856
mp-1071955,AlPS4,-0.6891077448710311
mp-1195438,AlB7Pd15,-0.262905729818844
mp-1216247,Y4AlGe8,-0.53597631
mp-1228818,AlWC,0.623411731578949
mp-1228830,AlWC2,0.39014191640625
mp-1228839,AlW3C4,0.125863563203129
mp-1225062,Er2AlSi,-0.711160970416667
mp-1228880,AlNi4Ge,-0.393435677499998
mp-674463,AlHO2,-2.4224078165625
mp-667363,AlPO4,-3.106236630912699
mp-1214833,AlBrO,-2.583134489166666
mp-1214837,AlIO,-2.270353821666667
mp-554273,AlPO4,-3.107808355565475
mp-683984,Al(SeCl)4,-0.843153536805556
mp-555438,Ba3AlF9,-4.08460704125
mp-23807,AlHO2,-2.6111327653125
mp-1106183,LiAlS2,-1.530981073958333
mp-11794,AlAgO2,-2.240488851666666
mp-1191076,AlCuCl4,-1.317543310833333
mp-1245637,AlFeN2,-0.5980831293750011
mp-1245799,AlBiN2,-0.5418834721875
mp-1246075,ScAlN2,-1.6765804581250001
mp-1246170,AlCrN2,-0.9681853387499981
mp-1246670,AlCoN2,-0.5226175590624981
mp-1247201,AlInN2,-0.881264428124999
mp-1247742,AlVN2,-1.144031057499999
mp-21216,AlFeO3,-2.5228653455
mp-556020,Li3AlF6,-3.4856473865
mp-568423,AlPI8,-0.6438012067142851
mp-569787,Al(BH4)3,-0.10353345781250001
mp-644097,BaAlH5,-0.450698718392857
mp-7117,LiAlSe2,-1.276307118072917
mp-772187,AlGaO3,-2.81903060325
mp-772898,AlGaO3,-2.8201032384999998
mp-9212,NaAlO2,-2.929171832219827
mp-557362,AlPO4,-3.110478544246031
mp-1217032,TiAlV2,-0.102252381666666
mp-1220375,NbAlV2,-0.10293251996874601
mp-1228827,AlV2Fe,-0.133892152499999
mp-1228937,AlCrFe2,-0.008672372499999
mp-1102924,NaAlH4,-0.19059121416666602
mp-1178155,La3AlO6,-3.792187195999999
mp-1209153,RbAlH4,-0.26011296708333304
mp-1245824,AlIn2N3,-0.622607036041664
mp-1245982,Y2AlN3,-1.7249788860416642
mp-1246890,AlFe2N3,-0.44293355666666606
mp-1258775,MnAlO3,-2.54344941191954
mp-1337126,Al(CuO2)3,-0.7630633865
mp-625054,AlHO2,-2.6454554365625
mp-667310,AlPO4,-3.09832329327381
mp-754979,Y3AlO6,-3.823918631500001
mp-768573,Lu3AlO6,-3.932159165999999
mp-1023262,Mg6AlBi,0.027081913124999003
mp-1023266,Mg6AlGa,0.010987004062500002
mp-1023268,Mg6AlBi,0.029713706874999003
mp-1023270,Mg6AlGa,0.0106142328125
mp-1023272,Mg6AlSb,-0.028478609374999003
mp-1023273,Mg6NbAl,0.13393053062500002
mp-1023275,Mg6AlCd,0.025675180625000002
mp-1023276,Mg6AlC,0.5820160075
mp-1023277,HfMg6Al,0.07901648937500001
mp-1023278,BaMg6Al,0.124955704375
mp-1023279,Mg6AlB,0.38311946010416703
mp-1023280,Mg6AlCr,0.152499578125
mp-1023281,Mg6AlSb,-0.028104372499999003
mp-1023284,HfMg6Al,0.07660971062500001
mp-1023285,Mg6AlSi,0.0947764075
mp-1023287,Mg6AlSi,0.08897130562500001
mp-1023289,Mg6AlW,0.27235440375000003
mp-1023290,SrMg6Al,0.08553658500000001
mp-1023294,Mg6AlMo,0.175744630625
mp-1023295,NaMg6Al,0.092522731077586
mp-1023296,Mg6NbAl,0.12826656625000002
mp-1023297,Mg6AlW,0.253423294375
mp-1023298,Mg6AlMo,0.19275611750000002
mp-1023299,LaMg6Al,0.029176768749999003
mp-1023300,RbMg6Al,0.28457224468750003
mp-1023302,Mg6AlCr,0.145306864374999
mp-1023303,NaMg6Al,0.09285602420258601
mp-1023304,RbMg6Al,0.2813194928125
mp-1023306,Mg6AlCd,0.021266687500000003
mp-1023310,Mg6AlB,0.389100747604167
mp-1023320,LiMg6Al,0.014738218958333
mp-1023325,LaMg6Al,0.007175486874999
mp-1023360,CsMg6Al,0.34533022754310305
mp-1023362,BaMg6Al,0.08490208
mp-1023365,Mg6AlC,0.343943245624999
mp-1023367,CeMg6Al,0.07211294500000001
mp-1023393,Mg6AlV,0.164242798124999
mp-1023394,Mg6AlV,0.15561043062499902
mp-1023395,Mg6AlSn,0.0104681775
mp-1023396,Mg6AlNi,0.034212498125000004
mp-1023397,Mg6TiAl,0.08929117208333301
mp-1023398,Mg6AlSn,0.002778844374999
mp-1023399,LiMg6Al,0.016104527708333
mp-1023400,Mg6TiAl,0.08727507083333301
mp-1023401,KMg6Al,0.21937136596875
mp-1023402,Mg6ZrAl,0.036549868125
mp-1023403,Mg6ZrAl,0.031716949375000004
mp-1023409,CsMg6Al,0.33757846816810305
mp-1023416,KMg6Al,0.21952200659375
mp-1023479,CaMg6Al,0.034247605625000004
mp-1023480,Mg6AlNi,0.0450248825
mp-1023481,Mg6MnAl,0.11530195213362
mp-1023482,Mg6AlCu,0.058117516875000004
mp-1023483,Mg6AlZn,0.03341915
mp-1023484,Mg6AlCu,0.058470533125
mp-1023485,Mg6AlZn,0.036834823749999
mp-1023486,Mg6MnAl,0.11172136088362
mp-1023487,CaMg6Al,0.030955725000000003
mp-1023491,Mg6AlCo,0.13308259687500001
mp-1023494,Mg6AlFe,0.14657980750000002
mp-1023500,YMg6Al,-0.004118498124999001
mp-1023501,YMg6Al,0.00686181
mp-1023504,Mg6AlCo,0.11498530500000001
mp-1023505,Mg6AlFe,0.156924173749999
mp-1028159,HfMg14Al,0.051078078750000006
mp-1028163,Mg14AlBi,0.035375666874999004
mp-1028202,Mg14AlZn,0.025602684375
mp-1028205,Mg14MnAl,0.07521240825431001
mp-1028209,Mg14TiAl,0.060092337916666
mp-1028211,CaMg14Al,0.026334096249999002
mp-1028213,YMg14Al,0.011027295624999002
mp-1028216,Mg14ZrAl,0.026552081874999002
mp-1028217,Mg14AlSi,0.07108002687500001
mp-1028219,Mg14AlFe,0.136786628125
mp-1028223,LiMg14Al,0.017806654791666002
mp-1028225,KMg14Al,0.126748522046875
mp-1028226,Mg14AlW,0.16099193687500002
mp-1028230,Mg14AlB,0.21467799005208302
mp-1028233,Mg14AlSb,0.0065575450000000006
mp-1028234,Mg14AlSn,0.0223683615625
mp-1028235,Mg14AlCd,0.01751650125
mp-1028237,NaMg14Al,0.055016563663793004
mp-1028238,Mg14AlMo,0.11965530437500001
mp-1028246,Mg14AlGa,0.01593099015625
mp-1028251,Mg14AlCr,0.09386007124999901
mp-1028253,Mg14AlCu,0.042167434375
mp-1028254,Mg14NbAl,0.08099617187500001
mp-1028257,SrMg14Al,0.0586575525
mp-1028262,RbMg14Al,0.16617071828125002
mp-1028264,BaMg14Al,0.088062346875
mp-1028269,Mg14AlV,0.099382341249999
mp-1028284,Mg14AlNi,0.044309684375000005
mp-1028285,CsMg14Al,0.204751542521551
mp-1028322,Mg14AlC,0.274086744687499
mp-1028332,CeMg14Al,0.044008720625000004
mp-1028342,Mg14AlCo,0.09300164437500001
mp-1028385,LaMg14Al,0.022453400312500003
mp-1079129,UAlNi,-0.280674515555552
mp-1080545,ThAlCo,0.0046945544444520005
mp-1099107,SrMg6Al,0.0797931525
mp-1099111,CeMg6Al,0.075596286249999
mp-1215242,ZrTi2Al,-0.255361275833335
mp-1215277,ZrMnAl,-0.355281233477011
mp-1215302,ZrAlPd,-0.693139539166666
mp-1215306,ZrAlV,-0.316414906777779
mp-1215307,ZrAlMo,-0.38116340431372203
mp-1215317,ZrAlOs,-0.665848967279411
mp-1215326,ZrAlRh,-0.7692092408333331
mp-1215327,ZrAlIr,-0.9631234185329821
mp-1215340,ZrAlFe,-0.40807166250000004
mp-1215346,ZrAlCr,-0.281577295111105
mp-1215357,ZrAlCo,-0.47312972333333203
mp-1215490,Zr2AlSi,-0.7904046825000031
mp-1215785,YbAlCo,-0.40943854833333404
mp-1216033,YAlFe,-0.275782501666666