material_id,formula,formation_energy_per_atom
mp-1112251,K2CuAsF6,-2.3910848862
mp-1112273,Cs2CuMoBr6,-1.268860470931034
mp-1112278,Cs2CuBiBr6,-1.410383978931034
mp-1112377,K2TaCuCl6,-1.564795610183333
mp-1112380,K2CuMoCl6,-1.361970547152782
mp-1112383,K2InCuCl6,-1.649744988116666
mp-1112412,Rb2TmCuCl6,-2.138892495500001
mp-1112413,Rb2YCuBr6,-1.8092656325
mp-1112416,Rb2TbCuCl6,-2.135208446166666
mp-1112430,Rb2SmCuCl6,-2.123311536
mp-1112553,K2CeCuBr6,-1.755652250449999
mp-1112591,Cs2ScCuF6,-3.116287667041669
mp-1112609,Cs2InCuCl6,-1.535049823750001
mp-1112612,Cs2CuAsCl6,-1.5168232666810342
mp-1112637,Cs2TlCuF6,-2.332421550263185
mp-1112877,Cs2YCuI6,-1.390349050931035
mp-1112879,Cs2TaCuI6,-0.875837288664367
mp-1112882,Cs2CuSbI6,-0.9906243239310341
mp-1112883,Cs2PrCuI6,-1.3993131760977011
mp-1112884,Cs2NdCuI6,-1.399856529681034
mp-1112885,Cs2CuMoI6,-0.8641907219310351
mp-1112909,Cs2YCuCl6,-2.022476435000006
mp-1112910,Cs2TaCuBr6,-1.293198004664368
mp-1112917,Cs2ErCuCl6,-2.024936442333333
mp-1112958,Cs2DyCuCl6,-2.02527425424999
mp-1112959,Cs2CuAuF6,-2.096964393931034
mp-1113025,K2InCuF6,-0.39394701211666605
mp-1113070,Cs2CuBiI6,-1.032067757931035
mp-1113104,Cs2NbCuF6,-2.525266929000003
mp-1113106,Cs2InCuF6,-2.570623657597701
mp-1113181,Cs2ScCuCl6,-1.945297614749999
mp-1113182,Cs2CuMoCl6,-1.3953499875000022
mp-1113185,Cs2GaCuCl6,-1.648100147681034
mp-1113205,Cs2TlCuCl6,-1.5713470202643691
mp-1113207,Cs2TbCuCl6,-2.03379767004167
mp-1113287,Rb2CuAuCl6,-1.3867248435000001
mp-1113288,Rb2ErCuCl6,-2.1385495995
mp-1113297,Rb2EuCuCl6,-2.056438472000001
mp-1113306,Rb2CeCuCl6,-2.105191103499999
mp-1113307,Rb2CeCuF6,-3.086550719499999
mp-1113309,Rb2CuAsF6,-2.394712896249999
mp-1113336,Cs2TaCuCl6,-1.598200449664368
mp-1113343,Rb2LaCuCl6,-2.150020003
mp-1113344,Rb2TaCuBr6,-1.271575133233332
mp-1113355,Cs2PrCuBr6,-1.8372968130977
mp-1113362,Cs2CeCuI6,-1.391734718931034
mp-1113363,Cs2CeCuCl6,-1.974937743500004
mp-1113374,Na2NdCuCl6,-1.760070670250002
mp-1113375,Na2PrCuCl6,-1.844187332166667
mp-1113403,Rb2DyCuCl6,-2.135849725666666
mp-1113404,Rb2InCuBr6,-1.398818896166666
mp-1113474,Rb2CuNiF6,-2.4479118664999993
mp-1113481,Cs2InCuBr6,-1.425134508597701
mp-1113487,Rb2FeCuF6,-2.5381276245
mp-1113490,Cs2CuAuCl6,-1.3910486319310351
mp-1113523,Cs2LaCuCl6,-2.047499776999994
mp-1113558,Cs2TlCuBr6,-1.337138791264368
mp-1113560,Rb2ScCuCl6,-2.079400378
mp-1113597,Rb2CeCuBr6,-1.7965286894999992
mp-1113598,Rb2InCuCl6,-1.677369040166667
mp-1113787,Rb2VCuF6,-2.6840008875
mp-1113790,Rb2TaCuF6,-2.516365576233333
mp-1113791,Rb2TlCuF6,-2.389293845833334
mp-1113795,Rb2CuRuF6,-2.228017409499999
mp-1113796,Rb2ScCuF6,-3.151056795999999
mp-1113802,Rb2PrCuF6,-3.072874017666666
mp-1113807,Rb2InCuF6,-2.589391039166666
mp-1113808,Rb2MnCuF6,-2.6644300392931033
mp-1113817,Rb2CuBiF6,-2.5127164175
mp-1113948,Rb2TaCuCl6,-1.589300270233332
mp-1206176,Rb2NaCuF6,-2.573304985637931
mp-1206427,KRb2CuF6,-2.564464233225
mp-1206535,Cs2RbCuF6,-2.554806225681035
mp-1207213,K2LiCuF6,-2.604690493783333
mp-1212014,K2FeCuC12,1.254986045343749
mp-13797,K2NaCuF6,-2.577095479587931
mp-1516290,Sr2NbCuO6,-2.6332978970000003
mp-1517843,Sr2CuSbO6,-2.205284823
mp-1520595,Sr2CuWO6,-2.441260219999999
mp-1520951,Sr2CuBiO6,-1.956773241
mp-6968,Cs2KCuF6,-2.570865261656034
mp-726328,FeCu(C3N4)2,0.9849131137499981
mp-1224187,InCuTeSe,-0.44403595226562204
mp-1224400,InCuSeS,-0.583769869843747
mp-1224872,GaCuSeS,-0.6239748623437541
mp-1224989,FeCuSeS,-0.436299421210938
mp-1224994,GaCuTeSe,-0.43908585101562403
mp-1238853,TiCrCuS4,-1.185732081904761
mp-1239128,ZrCrCuS4,-1.255687668571428
mp-1239210,HfCrCuS4,-1.286045914285713
mp-1217688,Tb2ZnCuSi2,-0.6177413055555541
mp-1218825,Sr2CuCO5,-2.314993982222223
mp-1220737,Na5CuCO5,-1.689860556408045
mp-1223928,Ho2ZnCuSi2,-0.603484639999997
mp-1225295,Dy2ZnCuSi2,-0.6107972955555531
mp-1227430,Ca2CuCO5,-2.29217682
mp-1232038,CuBiSeO,-0.6075161568359371
mp-2210703,MgCuPdO2,-1.063016356999999
mp-2218833,MgTi3CuO8,-2.903755640384616
mp-2219707,MgTi3CuO8,-2.856427675769231
mp-2225405,BaMgCuO2,-1.403267912999999
mp-2227545,MgTi3CuO8,-2.873941059615385
mp-2227998,MgCuPtO2,-1.024324908999999
mp-2240835,SrMgCuO2,-1.5536220349999992
mp-1225857,CuBi3PbS6,-0.595384234999999
mp-1239187,TiCrCuS4,-0.9820968022619041
mp-1239245,HfCrCuS4,-0.9376376342857131
mp-1239256,ZrCrCuS4,-1.023504041785714
mp-542302,CuBi3PbS6,-0.6218811781818181
mp-1238889,TiCrCuS4,-0.9370223436904751
mp-1239137,ZrCrCuS4,-1.031614894642857
mp-758624,LiCuPO4,-2.18618154542517
mp-1215825,Zn3Cu(WO4)4,-1.958533805416666
mp-1238900,TiCrCuS4,-1.1139015833333321
mp-1239125,ZrCrCuS4,-1.185066812857143
mp-1239216,HfCrCuS4,-1.212026485714284
mp-2225968,MgCuTeO4,-1.523029450238094
mp-1211979,KNb3CuO9,-2.656935491053571
mp-1225886,CuBi3PbS6,-0.6055132236363631
mp-1239211,TiCrCuS4,-0.983629489047618
mp-1239236,ZrCrCuS4,-0.9215847685714291
mp-1239263,HfCrCuS4,-0.9150174178571411
mp-1239274,ZrCrCuS4,-1.050433919642857
mp-1246312,HfCrCuS4,-1.088031450357141
mp-1247017,ZrCrCuS4,-1.066794004642857
mp-27047,Li2CuPO4,-2.30056764516369
mp-562090,CuCClO,-0.8871024900000001
mp-620033,BaCu(SeO3)2,-1.7111018002187501
mp-628643,CuAsPbS3,-0.554877909166665
mp-649774,CuSbPbS3,-0.587382019166665
mp-752858,Li2CuSiO4,-2.334865066458333
mp-1176767,LiCuPO4,-2.153541722329932
mp-504304,LiCuPO4,-2.176161533639455
mp-542426,CuHgSI,-0.423170259375001
mp-669427,RbCuPO4,-2.139787241020408
mp-695830,Na2Cu(HO)4,-1.355551300250783
mp-734141,CuC2(SN2)2,1.129340914707337
mp-752507,LiCuPO4,-2.1690510522108832
mp-757209,LiCuPO4,-2.150768294710883
mp-758071,LiCuPO4,-2.134573196139455
mp-758435,Li2CuSiO4,-2.328476033020833
mp-758616,LiCuPO4,-2.177885985782312
mp-758708,Li2CuSiO4,-2.329954492083334
mp-758743,Li2CuSiO4,-2.322185774583333
mp-758891,Li3CuPO5,-2.298002246964286
mp-758955,LiCuPO4,-2.163538109353741
mp-759472,LiCu(HO)4,-1.2668992698333321
mp-761191,LiCuPO4,-2.148807061139455
mp-769242,Li2Cu(HO)4,-1.415050967651515
mp-769290,LiCuPO4,-2.139937093639454
mp-773891,LiCuPO4,-2.183715850425169
mp-1078511,CuAsPtS2,-0.5738295574999981
mp-1216911,TmCuPbS3,-1.34976200125
mp-1217605,TbCuPbS3,-1.349183927361108
mp-1222325,LuCuPbS3,-1.34434975736111
mp-1224006,HoCuPbS3,-1.348984452916664
mp-1225327,DyCuPbS3,-1.3492028631944422
mp-1225628,ErCuPbS3,-1.352142200416665
mp-554291,CuSb2ClO3,-1.439639843571427
mp-558063,KCu(BiS2)2,-0.78785236340625
mp-558907,CsCu(BiS2)2,-0.623689597239607
mp-559587,CuSb2BrO3,-1.3903336967857132
mp-865269,TmCuPbSe3,-1.226585237838542
mp-865492,LuCuPbSe3,-1.219189502282985
mp-1219938,Pr2CuSi3Rh2,-0.6920603404166661
mp-1220220,Nd4CuNiO8,-2.906284151428572
mp-1220292,Nd2Mn2CuSi3,-0.43872684799569006
mp-1220293,Nd2CuSi3Rh2,-0.6779834668750001
mp-1220386,Nd2CuSi3Rh2,-0.8863223643750001
mp-1516806,SrCu(SeO3)4,-1.048445889409721
mp-2223706,MgCuNi3O4,-0.7708452305555551
mp-1202656,CuBi2Se3O11,-1.245864400413603
mp-1224071,K5CuCO5,-1.6864241596875
mp-1222156,Mn5Cu(PO4)4,-2.421552915316408
mp-1222546,LiCuSbO4,-1.748695176190476
mp-26224,Li3Cu(PO4)2,-2.34305595637755
mp-505349,KCuPO4,-2.181315387413264
mp-559727,Tl2CuAsO4,-1.302458703020835
mp-753179,Li2CuPO4,-2.25127221516369
mp-756323,Li2CuAsO4,-1.784384391770833
mp-756392,LiCuSi2O5,-2.607716072037037
mp-758796,LiCuPO4,-2.136605185068026
mp-760485,Li2CuSiO4,-2.278512335833333
mp-769278,LiCuPO4,-2.13139194935374
mp-777277,Li2Cr3CuO8,-1.9626794220833321
mp-1229043,Ba4Zn2CuGe20,-0.28396377833333303
mp-557735,BaCuTe2O7,-1.812993904393939
mp-1219782,Rb2CuBrCl3,-1.63758293
mp-25885,LiCuPO4,-2.181721986853741
mp-542332,K2Cu(CO3)2,-1.8542813113181822
mp-757685,Li2Cu(SiO3)2,-2.562822862424242
mp-1218361,SrCaCuO3,-2.464629555833333
mp-1218762,Sr2Li7CuN4,-0.522848028095238
mp-1218829,Sr2Cu(OF)2,-2.710509082857143
mp-1222185,Mg3Cu(SnS4)2,-1.02516270892857
mp-1225264,Fe3Cu(SnS4)2,-0.6231857392857131
mp-1225814,CuNi3(SnS4)2,-0.596397398571427
mp-1226500,Co3Cu(SnS4)2,-0.620369638571428
mp-1383866,Ca2CuWO6,-2.365878526
mp-2217102,MgTa2CuO6,-2.675263095966666
mp-2226469,Ba2MgCuO3,-1.9101786671428571
mp-2227095,Sr2MgCuO3,-1.975947021428571
mp-2227401,Ba2MgCuO3,-1.6705849771428571
mp-2242299,Ba2MgCuO3,-1.9456355357142852
mp-1105298,La2CuSbS5,-1.59567004361111
mp-1238887,TiCrCuS4,-1.185712821904761
mp-1239133,ZrCrCuS4,-1.134953073571429
mp-1239146,HfCrCuS4,-1.287564739999998
mp-1337023,Ca2YCuO5,-2.692535792222221
mp-1035243,SrMg14CuO16,-2.8136144440625
mp-1035244,Mg14CuCO16,-2.579368798593749
mp-1035249,Mg14CuSiO16,-2.7907211571875
mp-1035261,Mg14CdCuO16,-2.758906656562499
mp-1035266,Mg14CuBiO16,-2.689819083437499
mp-1035274,Mg14NbCuO16,-2.791725139687499
mp-1035284,Mg14CrCuO16,-2.834172056875
mp-1035297,BaMg14CuO16,-2.71266189125
mp-1035299,HfMg14CuO16,-2.8645869046875
mp-1035335,Mg14TiCuO16,-2.8879412029166662
mp-1035350,Mg14CuSnO16,-2.741179566718749
mp-1035395,Mg14VCuO16,-2.8431305090625
mp-1035566,Mg14CuNiO16,-2.75520815375
mp-1035635,Mg14CoCuO16,-2.774368731875
mp-1035796,Mg14FeCuO16,-2.7892073109375
mp-1035833,Mg14ZnCuO16,-2.8063066271875
mp-1036005,YMg14CuO16,-2.896896390937499
mp-1036333,Mg14MnCuO16,-2.825148495560345
mp-1036393,CaMg14CuO16,-2.878403843124999
mp-2226164,MgCuPdO2,-0.8297555709999991
mp-2226886,MgCuPtO2,-0.7200400129999991
mp-2241009,MgCuPtO2,-0.834657692999999
mp-1101238,V4FeCuO12,-2.089834510555556
mp-1101361,V4CoCuO12,-2.003005224444445
mp-1178207,Li2Cr3CuO8,-1.964657747083332
mp-1181826,CoCuP2O7,-2.111097494025973
mp-1215559,ZnCuP2O7,-2.201177479480519
mp-1216520,V2ZnCuO7,-1.984982716818181
mp-1224662,Ho5Cu(WO4)8,-2.673524001413042
mp-1226080,CuAg10(PbO4)3,-0.729068750256409
mp-1226296,CrCu(PSe3)2,-0.49991660233482005
mp-1226928,CdCuP2O7,-2.140655277662337
mp-1228033,BaFeCuF7,-2.8692657275
mp-1281222,Li2CoCuO4,-1.538970012083334
mp-1337089,Ca2CuRhO6,-1.8636564919999992
mp-1374245,Ca2CuIrO6,-1.9181086020000002
mp-1570811,Li2V5CuO12,-2.279794307333333
mp-2230742,MgV5CuO12,-2.266557368157895
mp-551135,BaCuB2O5,-2.5904780203703712
mp-560453,Ca7Cu(PtO6)2,-2.485199199545454
mp-672155,Rb2VCuS4,-1.2682848381249991
mp-753851,Li4Mn5CuO12,-1.892036264681296
mp-754799,MnV4CuO12,-2.034003206551724
mp-755507,Li2V5CuO12,-2.251284391333334
mp-756111,TiV4CuO12,-2.337027355740742
mp-756167,V4CuNiO12,-2.039255946666666
mp-756257,LiV4CuO12,-2.08436254074074
mp-756355,Li3V4CuO12,-2.249886024000001
mp-756422,Li4CuSi2O7,-2.567689882023809
mp-756483,V4CrCuO12,-2.180077924444445
mp-1147565,CuPb2(BrO)2,-1.004411255357142
mp-1191524,CuP2(HO)4,-1.202172252662337
mp-555267,CuHgSBr,-0.5360772075000011
mp-567720,CuHgSeBr,-0.531227599960939
mp-672253,CuHgSCl,-0.622250799375001
mp-1203192,Ga2CuSe3O10,-1.499208839189453
mp-23875,CuH4(ClO)2,-1.118199262222222
mp-541373,KTa3CuO9,-2.904744851196429
mp-1200865,CuH6C2O7,-1.284133619999999
mp-23567,CuHgSCl,-0.632859902812501
mp-554184,Ho2Cu(BO2)8,-2.946118047345678
mp-554879,CuHgSBr,-0.538091971875001
mp-555645,CuHgSBr,-0.5340913018750001
mp-569687,CuHgSeCl,-0.422759308765627
mp-1196110,SrCuTe2O7,-1.8050464164393931
mp-1203135,CuTe2PbO7,-1.414946227803029
mp-558199,CuAs4S3Cl,-0.263227873452932
mp-759767,LiCu(PO3)3,-2.353447345340136
mp-1199109,KCuB7O13,-2.241224594609848
mp-1207469,ZnCuAsO5,-1.4580736865625
mp-721035,CuH12(NO)6,0.043777494349999
mp-1239186,TiCrCuS4,-1.041079300833331
mp-1239218,HfCrCuS4,-1.138392086071427
mp-1239257,ZrCrCuS4,-1.106043159642857
mp-1221767,MnInCuS4,-0.5421586886761101
mp-1226364,Cr2CuAgS4,-0.7168959827083321
mp-1238879,TiCrCuS4,-0.9847180701190461
mp-1239152,HfCrCuS4,-1.101239030714284
mp-1239224,ZrCrCuS4,-1.109738711071428
mp-2225560,BaMgCuS2,-1.141934257999999
mp-2242277,Sr2MgCuO3,-2.231598217142857
mp-26851,Li2CuPO4,-2.30660807422619
mp-755445,Li2CuPO4,-2.29064693641369
mp-755821,Li5Cu(PO4)2,-2.525703097247024
mp-756349,Mn3Cu(PO4)4,-2.287113597181856
mp-756357,Cr3Cu(PO4)4,-2.369026299940477
mp-775177,Co3Cu(PO4)4,-1.9670218016071432
mp-775191,Fe3Cu(PO4)4,-2.179921627440475
mp-775334,V3Cu(PO4)4,-2.493447936607143
mp-778743,Li5Cu(PO4)2,-2.521570542872023
mp-758531,LiCuPO4,-2.139640511853741
mp-1041479,MgCu(SiO3)2,-2.732313234875
mp-1041504,ZnCu(SiO3)2,-2.422427176125
mp-1041594,CaCu(SiO3)2,-2.8047561182500003
mp-1042456,ZnCuBiO5,-1.112127842031251
mp-1042499,CaCuBiO5,-1.4745387128125
mp-1182715,CuH6(CO2)4,-1.109371708421052
mp-1196579,Cs2CuSi5O12,-2.867034138028017
mp-1201042,CuH2(CO2)2,-1.102490466944443
mp-1212602,LaCu(MoO4)2,-2.264901558854166
mp-1213667,ErCu(MoO4)2,-2.235157468333334
mp-1328326,MgCuBiO5,-1.49770986671875
mp-14948,TbCu(MoO4)2,-2.279479599722222
mp-15481,DyCu(MoO4)2,-2.278202888993056
mp-24156,CuP2(HO)4,-1.223929257435065
mp-553972,CuCSN,0.037774511171875004
mp-554075,SmCu(MoO4)2,-2.273642501354167
mp-554492,NdCu(MoO4)2,-2.270357469791667
mp-555912,PrCu(MoO4)2,-2.266644913055556
mp-558437,HoCu(MoO4)2,-2.276958293125
mp-559028,YCu(MoO4)2,-2.266380460729168
mp-560018,GdCu(MoO4)2,-2.264521184270833
mp-560455,EuCu(MoO4)2,-2.132517154583335
mp-561248,SmCuTeS,-1.425976595416666
mp-600167,CuH6(CO2)4,-1.130039835263158
mp-601287,CuH2(CO2)2,-0.961876689583333
mp-608358,CuAgPO4,-1.6886886046513592
mp-646720,V2Cu(PO5)2,-2.341209362035713
mp-649472,KCuPO4,-2.20136994937755
mp-655052,CuH2(CO2)2,-0.985246459999999
mp-707987,CuH8(ClO5)2,-0.9303839525
mp-727112,SrCu(C2O5)2,-1.53922112421875
mp-762220,LiCuPO4,-2.15922177310374
mp-769274,LiCuPO4,-2.169190477389455
mp-774624,LiCuBO3,-2.033252312083333
mp-1005792,Sm2CuAs3O,-1.551877326428572
mp-1094117,NaCdCuSe2,-0.506642799713361
mp-1182677,BaGd2CuO5,-3.023537846388889
mp-1190656,SmEuCuS3,-1.9093446837499992
mp-1190834,SrNdCuS3,-1.909333639166665
mp-1190889,SrGdCuSe3,-1.7935364674218741
mp-1191152,PrEuCuS3,-1.893403185694444
mp-1191419,NdEuCuS3,-1.896783643333333
mp-1192362,SrGdCuS3,-1.939770980416665
mp-1195095,KCuSb3F18,-2.62400225575
mp-1195675,La2CuBiS5,-1.5784127148958351
mp-1195928,Ce2CuBiS5,-1.499620879756949
mp-1197218,CuC2(SN2)2,1.123802496651781
mp-1199635,CuC8(NCl2)2,1.4017341019027731
mp-1199802,CuSN4O5,-0.574356470681819
mp-1200315,NaCuMoO5,-1.593185463922414
mp-1202875,CuH5N2Cl3,-0.645348476249999
mp-1203092,YCuSO7,-1.889055428249999
mp-1208670,SrLaCuSe3,-1.8143316732812491
mp-1209206,RbVCuF6,-2.731665900555556
mp-1210482,Pr2InCuSe5,-1.457672938877294
mp-1213564,CuSeClO5,-0.22819404763671802
mp-1214737,BaEu2CuO5,-2.629250627500002
mp-1215834,YbSm2CuS5,-2.042950137118055
mp-1218223,SrLaCuS3,-1.9670567658333322
mp-1218227,SrLaCuSe3,-1.81310261078125
mp-1219482,Sm2InCuS5,-1.6242243240740741
mp-1220024,PrEuCuS3,-1.8832067006944442
mp-1220176,Pr2InCuS5,-1.590038363043978
mp-1221044,Nd2InCuS5,-1.592364381006938
mp-1223219,LaCuPbS3,-1.3900638383333321
mp-1224037,La2InCuS5,-1.709838627129629
mp-1238862,TiCrCuS4,-0.9833527415476181
mp-1239127,HfCrCuS4,-0.907678616785713
mp-1239134,ZrCrCuS4,-1.116282527499999
mp-1239174,TiCrCuS4,-1.133755701190475
mp-1239204,HfCrCuS4,-1.13527165642857
mp-1239213,HfCrCuS4,-0.995032767142855
mp-1239248,ZrCrCuS4,-0.908656591428571
mp-1246393,ZrCrCuS4,-0.993612466785713
mp-17063,BaLaCuTe3,-1.517794134999999
mp-17660,SrPrCuSe3,-1.766424609366319
mp-17687,SrDy2CuO5,-3.085557710092592
mp-17734,SrHo2CuO5,-3.098038093055554
mp-17878,BaHo2CuO5,-3.093318911388888
mp-18079,BaLaCuS3,-1.966379829583333
mp-21390,La2InCuSe5,-1.575460973431713
mp-21527,Na2ScCuF7,-3.12456310674243
mp-21568,BaSm2CuO5,-3.005647547777777
mp-21611,Na2InCuF7,-2.6011755009343362
mp-22202,BaTm2CuO5,-3.122397166111112
mp-22550,BaDy2CuO5,-3.083058379537037
mp-25449,LiCuPO4,-2.183678110782312
mp-26267,Li2Cu(PO3)4,-2.460351948433584
mp-26695,Li2CuPO4,-2.301173932976191
mp-504871,SrV2CuO7,-2.346887507727273
mp-504978,Na2CrCuF7,-2.716774048205329
mp-505171,NaTiCuS3,-1.297852007868777
mp-505172,NaZrCuSe3,-1.287678903901759
mp-505173,NaZrCuTe3,-0.9321553306465521
mp-505268,BaLu2CuO5,-3.132618489259259
mp-505448,NaHfCuSe3,-1.285682784318427
mp-505808,BaEr2CuO5,-3.108483970833333
mp-505811,FeCuPO5,-1.9528779715178581
mp-510659,VCuAgO4,-1.467899853452381
mp-541430,BaLaCuSe3,-1.856938119921875
mp-541773,Na2VCuF7,-2.7788933607575723
mp-541824,BaV2CuO7,-2.364414597045455
mp-542733,BaY2CuO5,-3.047560420555555
mp-542765,EuDyCuS3,-1.9240625094444432
mp-542802,YCuPbS3,-1.346010115833332
mp-554160,K2CuP2O7,-2.4040318565654752
mp-555681,La3CuS3O2,-2.74157057611111
mp-559180,Ba2Cu(BO3)2,-2.736989142348484
mp-560425,Sr2Cu(BO3)2,-2.770848755416667
mp-567983,ErCuPbSe3,-1.235050552421874
mp-583052,LuCuPbSe3,-1.220512271449652
mp-601257,DyCuPbSe3,-1.2383251860329851
mp-601286,TbCuPbSe3,-1.241465798949651
mp-615754,RbCuPdF5,-2.035636270625
mp-624191,CuBiPbS3,-0.6030350574999991
mp-6244,HoCuPbSe3,-1.23645850658854
mp-640324,TmCuPbSe3,-1.2287362040885421
mp-642316,CuBi5PbS9,-0.628352296874999
mp-642448,Ce2InCuSe5,-1.453273165931712
mp-653586,CuS4(N2Cl)2,0.12717707454545202
mp-697072,CuHIO4,-0.9297275505357141
mp-704617,InCuPO5,-2.059988684226191
mp-757878,Na5Cu(HO2)2,-1.450988827033045
mp-758311,Li2CuSiO4,-2.343638917708333
mp-758415,LiCuPO4,-2.171371536853741
mp-758587,Li2CuPO4,-2.297300343601191
mp-758758,Li2CuSiO4,-2.333040286458334
mp-758828,LiCuPO4,-2.143635188996598
mp-758945,Li5CuHO4,-1.731310787083333
mp-758987,Na5CuHO4,-1.4091716833542312
mp-761755,LiCu(PO3)3,-2.323160155875851
mp-769763,Li5Cu(HO2)2,-1.723956205138888
mp-10336,BaYCuTe3,-1.4514473525
mp-10834,RbNd2CuS4,-1.871221602812499
mp-10835,RbSm2CuS4,-1.884023039062499
mp-1095273,BaGdCuTe3,-1.469994218333331
mp-1095661,YbCuPbSe3,-1.168994613697918
mp-1101801,BaYCuSe3,-1.809767559505208
mp-1102015,ThTlCuSe3,-1.308293750894096
mp-1102297,BaGdCuS3,-1.958406533749999
mp-1103275,BaYCuS3,-1.950495586249999
mp-1103557,MgVCuO4,-2.213272839285714
mp-1103664,BaScCuS3,-1.8721116820833321
mp-1147561,BaCuSO,-1.683981405625
mp-11602,KY2CuS4,-1.897284443406249
mp-11603,KNd2CuS4,-1.8742890240312482
mp-11604,KSm2CuS4,-1.890096092156249
mp-11605,KTb2CuS4,-1.907721698197915
mp-11606,KHo2CuS4,-1.902475528406248
mp-1205378,LuCuPbSe3,-1.220021106449652
mp-1212752,EuLuCuS3,-1.91560955236111
mp-1213937,Cr5Cu(GeO6)2,-2.14457261825
mp-1214224,BaYbCuTe3,-1.421831624166666
mp-1214381,BaPrCuTe3,-1.45635821111111
mp-12322,RbGd2CuS4,-1.9047816453125002
mp-12365,KThCuS3,-1.719101605791665
mp-12728,EuTmCuS3,-1.922079287916668
mp-13189,SrLuCuS3,-1.93318916236111
mp-13348,CsUCuS3,-1.46738358952586
mp-13349,KUCuS3,-1.457796867458331
mp-13352,RbUCuS3,-1.4638861466666642
mp-14969,BaErCuS3,-1.958185137916666
mp-15553,KGd2CuS4,-1.913766812156248
mp-16116,RbSm2CuSe4,-1.737498057109374
mp-16118,RbDy2CuSe4,-1.726470330651039
mp-16445,CsSm2CuSe4,-1.726521419878771
mp-16559,KHo2CuSe4,-1.728018774578123
mp-16560,KEr2CuSe4,-1.725518047078123
mp-20157,BaGdCuSe3,-1.8230161028385412
mp-20219,CsUCuTe3,-0.9411913124425261
mp-22472,Ba3CuRu2O9,-2.117636103666667
mp-505424,VCdCuO4,-1.730580807857142
mp-505815,CsLa2CuSe4,-1.819113964253771
mp-510459,MnVCuO4,-1.92740520684729
mp-510569,CsCeCuS3,-1.657662942859194
mp-554117,KZrCuF7,-3.199783751225
mp-554238,CuBiSCl2,-0.6645855136875011
mp-561312,KHfCuF7,-3.267212247725
mp-568191,SrLuCuSe3,-1.764532271449653
mp-571189,NaHf2CuSe5,-1.412716987010894
mp-574448,RbGd2CuSe4,-1.752188157109374
mp-582421,KUCuSe3,-1.297711085713539
mp-7049,ZrTlCuS3,-1.236993545972222
mp-7050,ZrTlCuSe3,-1.092194374227433
mp-7151,CsUCuSe3,-1.313237876947734
mp-7152,CsZrCuSe3,-1.355285959447736
mp-753076,LiVCuO4,-1.932162168333332
mp-755245,LiCuPO4,-2.165215026139455
mp-758750,LiCuPO4,-2.136748237568027
mp-861926,KGd2CuSe4,-1.756837860828124
mp-862687,CuH6(NCl)2,-0.650538266136363
mp-862772,CsNd2CuSe4,-1.727003756128771
mp-862802,CsNpCuS3,-1.436007625150862
mp-865203,YCuPbS3,-1.345554992083332
mp-867188,RbNpCuS3,-1.4225530247916671
mp-867312,KNpCuS3,-1.425546288083333
mp-9107,NaZrCuS3,-1.436033395646551
mp-9317,KZrCuS3,-1.507553859125
mp-9318,KZrCuSe3,-1.343207952380207
mp-9396,HfTlCuS3,-1.249015790138887
mp-9397,HfTlCuSe3,-1.08691476172743
mp-9503,BaDyCuTe3,-1.450041400277777
mp-9855,KHfCuS3,-1.5218820332916652
mp-1023132,K2Cu(ClF)2,-2.129742614928571
mp-1197804,CuP4S3Br,-0.4460697606746
mp-1202691,CuP4Se3I,-0.30474756367807504
mp-1213087,CuH2(NF2)2,-0.030656103055556
mp-554724,CuP4S3I,-0.389578175119045
mp-560345,Cs3CuTeS9,-0.827129019330869
mp-571015,CuP4Se4I,-0.37080123479464305