material_id,formula,formation_energy_per_atom
mp-1224602,H9Au(ClO)4,-1.125174311180555
mp-557441,KAu(IO3)4,-0.9163156492916661
mp-709946,CsAu(SO4)2,-1.656418287471264
mp-1223442,KSnAuSe3,-0.821640634046874
mp-1223460,KSnAuS3,-0.8508673041249981
mp-561470,AuS5N5Cl4,0.21072258043750802
mp-9509,K2PAuS4,-1.010385426142856
mp-9510,Tl2PAuS4,-0.604043033288692
mp-9511,K2AsAuS4,-0.878102668375
mp-1225277,Eu2Si4Pd3Au,-0.724125177
mp-1225121,EuSi2PdAu,-0.651388064999999
mp-1095626,La2P2AuO,-1.8809550565476192
mp-1101993,Pr2P2AuO,-1.762081302936506
mp-1103201,Ce2P2AuO,-1.7693219290476172
mp-1103406,Nd2P2AuO,-1.7767695790476181
mp-1194537,IrAuN5Cl6,1.17941504538462
mp-1212274,IrAuN5Cl6,1.039467920769235
mp-557122,RbAu(SeO4)2,-1.164052884348957
mp-569287,TlPAuSe3,-0.260937070860606
mp-652180,AuC5(SCl)4,0.658186733019765
mp-862850,KPAuSe3,-0.6994655806540171
mp-557498,NaBi2AuO5,-1.411561127931034
mp-557830,Na2Bi5AuO11,-1.447043983566244
mp-697715,H12AuC4N,-0.062072184166667
mp-1232309,Ba2Au(CO)2,-0.870982083571428
mp-560188,Ba4NaAuO8,-1.9036197179556642
mp-567776,Cs2AgAuCl6,-1.4474644520977011
mp-1180831,KAu(Br2O)2,-0.525013081531249
mp-1181025,KAu(Br2O)2,-0.47550091715624904
mp-1192181,AuC4(N2O)2,0.9359514004545451
mp-1193650,CoAu(BrN)6,0.25258067607142803
mp-1198003,NaAu(S2O7)2,-1.644920875068964
mp-1198127,SbP2AuF12,-2.577052034017857
mp-1198967,AuCN3Cl4,0.8277875460300861
mp-1201462,H6AuC3O2,-0.40920677875000006
mp-1202202,NaAu(IO3)4,-0.8951600239655181
mp-1202314,KAu(Br2O)2,-0.528420209968749
mp-1205033,Sb3Au(XeF9)2,-2.174214712291666
mp-1212182,KAu(Cl2O)2,-0.406802799343749
mp-554859,KGeAuS3,-0.859637387249999
mp-555085,KAu(NO3)4,-0.9275170098472211
mp-555376,CsAu(SO4)2,-1.689157804346264
mp-560021,AuS3(O3F)3,-1.64663749078125
mp-561190,NaAu(SO4)2,-1.6471397396982752
mp-570053,Bi8AsAuCl9,-0.906302310526317
mp-573727,Bi8SbAuBr9,-0.720775032763159
mp-726128,AuC4(N2O)2,0.6441442418181801
mp-734352,Na3Au(SO2)4,-1.591128838071119
mp-758923,SbAsAuF9,-2.291482606875
mp-1181708,KAu(CN)2,0.44128350430556
mp-672348,KAu(CN)2,-0.149170987361104
mp-1192000,CsH3AuN,-0.327236564166675
mp-1201215,H7AuN4O15,-0.9351451427314821
mp-1210205,Nb4P2AuS20,-0.9292993740476181
mp-556112,AuCS2Cl3,-0.16166139079718803
mp-561454,KAu(SO4)2,-1.676990848937499
mp-568381,RbAu(CN)2,-0.19622411583333302
mp-976587,KP2AuS7,-0.7033304180941551
mp-1221791,Mn2Sb2PtAu,-0.177621085977011
mp-2226681,MgFeAuO2,-1.357986197
mp-2227022,MgFeAuO2,-1.3636841869999992
mp-1202061,K19Na6Tl24Au,-0.09805895252051901
mp-981207,Yb3In3Ge2Au,-0.6288775283333331
mp-1229183,Ag3AuSeS,-0.040098596562505
mp-1105750,LiAu(S2O7)2,-1.644062793166666
mp-1190046,Sb2Au(XeF6)2,-2.063910726470588
mp-1200560,CsAu(IO3)4,-0.9177759949808431
mp-1212047,Na5Te2AuO28,-0.41757191333971905
mp-1217460,Te4Au(OF5)4,-2.057493172643678
mp-554574,Sb4Au(Xe2F11)2,-2.145614516774193
mp-555741,RbAu(SO4)2,-1.681593854374999
mp-560549,AuSeClO3,-0.915634184140625
mp-760678,Sb2H4AuF16,-2.135136125434782
mp-1215995,YInPdAu,-0.827749280426825
mp-7554,LiMgSnAu,-0.40073042833333206
mp-1110565,Cs2NaAuBr6,-1.361198000068965
mp-1110581,Rb2VAuF6,-2.5200214915
mp-1110582,Rb2ScAuF6,-3.009116091
mp-1110583,Rb2RuAuF6,-2.0575823095
mp-1110584,Rb2RhAuF6,-2.0848745765
mp-1110585,Rb2PdAuF6,-2.028620010499999
mp-1110586,Rb2NiAuF6,-2.2117716575
mp-1110587,Rb2MoAuF6,-2.4014443765
mp-1110588,Rb2MnAuF6,-2.443899928293103
mp-1110589,Rb2IrAuF6,-1.978898668499999
mp-1110590,Rb2InAuF6,-2.436522168166667
mp-1110591,Rb2GaAuF6,-2.511523400249999
mp-1110592,Rb2FeAuF6,-2.388655778499999
mp-1110593,Rb2CrAuF6,-2.5511064155
mp-1110594,Rb2CoAuF6,-2.1623652555
mp-1110595,Rb2AsAuF6,-2.2565488442499992
mp-1110612,Rb2AgAuF6,-2.029013695666666
mp-1110793,Rb2InAuCl6,-1.584695062166667
mp-1110991,Na2LiAuF6,-2.223027951609195
mp-1111038,Rb2GaAuCl6,-1.56195247225
mp-1111046,Rb2TaAuF6,-2.751740552233333
mp-1111084,Na2ScAuF6,-2.7569687074444493
mp-1111085,Na2VAuF6,-2.36089223875
mp-1111086,Na2CrAuF6,-2.361215615275862
mp-1111087,Na2RuAuF6,-1.9315875195000012
mp-1111089,Na2AsAuF6,-1.9541965959999992
mp-1111111,K2LiAuF6,-2.360179859783333
mp-1111131,K2NaAuCl6,-1.51308240558793
mp-1111136,K2RbAuCl6,-1.4986389902
mp-1111141,Na2CoAuF6,-2.018158489275862
mp-1111187,Na2AgAuBr6,-0.9519464624425281
mp-1111190,Na2HgAuF6,-1.7460563790833392
mp-1111241,K2NaAuBr6,-1.28577041058793
mp-1111293,Na2TiAuF6,-2.618074477609195
mp-1111300,Na2RhAuF6,-1.894455808833338
mp-1111301,Na2PdAuF6,-1.755471605333335
mp-1111302,Na2MoAuF6,-2.223017425874999
mp-1111303,Na2MnAuF6,-2.265300433068965
mp-1111304,Na2IrAuF6,-1.82079917266667
mp-1111305,Na2GaAuF6,-2.325130192025862
mp-1111335,Na2AgAuF6,-1.7467587267000022
mp-1111378,K2TlAuF6,-2.145717286783333
mp-1111399,Rb2YAuF6,-3.001162570499999
mp-1111400,Rb2TlAuF6,-2.175908921833334
mp-1111401,Rb2TiAuF6,-2.846980579833333
mp-1111402,Rb2SbAuF6,-2.3409232105
mp-1111403,Rb2BiAuF6,-2.3630892465
mp-1111412,Na2SbAuF6,-2.119919269275861
mp-1111442,K2RbAuF6,-2.250814167199999
mp-1111462,CsRb2AuF6,-2.255948434465517
mp-1111465,Rb2NbAuF6,-2.6124163255
mp-1111469,Rb2AgAuCl6,-1.374417813666666
mp-1111541,Na2AgAuCl6,-1.159400961442529
mp-1111549,Na2TaAuF6,-2.464241126243328
mp-1111585,K2TlAuBr6,-1.212922075783333
mp-1111605,K2RbAuBr6,-1.2745533322
mp-1111611,Rb2TlAuCl6,-1.460108712833335
mp-1111620,Rb2ScAuCl6,-1.9843116790000002
mp-1111626,Rb2AsAuCl6,-1.42524261825
mp-1111678,K2LiAuCl6,-1.527542103783333
mp-1111711,Rb2YAuCl6,-2.0334613855
mp-1111712,Rb2YAuBr6,-1.7390334255000002
mp-1111713,Rb2TlAuBr6,-1.2566751708333341
mp-1111714,Rb2ScAuBr6,-1.682009017
mp-1111715,Rb2SbAuCl6,-1.500795139499999
mp-1111716,Rb2SbAuBr6,-1.274948300499999
mp-1111717,Rb2InAuBr6,-1.3388286921666661
mp-1111718,Rb2GaAuBr6,-1.30455065925
mp-1111719,Rb2BiAuCl6,-1.5446268965
mp-1111720,Rb2BiAuBr6,-1.315900394499999
mp-1111721,Rb2AsAuBr6,-1.20359606825
mp-1111734,Rb2AgAuBr6,-1.175396540666665
mp-1111783,CsRb2AuBr6,-1.310372627465517
mp-1111786,Rb2YAuI6,-1.314804603499999
mp-1111787,Rb2TlAuI6,-0.940619578833334
mp-1111788,Rb2ScAuI6,-1.252791744999999
mp-1111790,Rb2SbAuI6,-0.9391753015000001
mp-1111791,Rb2InAuI6,-0.9807570131666661
mp-1111793,Rb2GaAuI6,-0.945515125249999
mp-1111795,Rb2BiAuI6,-0.9720027475
mp-1111796,Rb2AsAuI6,-0.8758640292500001
mp-1111920,K2NaAuF6,-2.32410380858793
mp-1111937,K2HgAuF6,-2.0086055517
mp-1111941,K2NiAuF6,-2.20911092745
mp-1111943,K2CrAuF6,-2.53201195645
mp-1111944,K2InAuF6,-2.4069415771166662
mp-1111957,K2TiAuF6,-2.8077236937833323
mp-1111959,K2FeAuF6,-2.368636214449999
mp-1111960,K2SbAuF6,-2.307818189449999
mp-1111977,Cs2RbAuF6,-2.327837465681035
mp-1111983,K2InAuCl6,-1.5476649791166661
mp-1111992,K2HgAuBr6,-1.145626102700001
mp-1111993,K2ScAuBr6,-1.642299711949999
mp-1111995,K2BiAuBr6,-1.27118850945
mp-1111996,K2CeAuCl6,-1.961300060449999
mp-1112056,K2YAuI6,-1.26823396845
mp-1112058,K2YAuBr6,-1.695225902449999
mp-1112059,K2YAuCl6,-1.991902996449999
mp-1112060,K2TbAuCl6,-1.996172140116665
mp-1112061,K2TmAuCl6,-2.00241253745
mp-1112062,K2ScAuI6,-1.20918381895
mp-1112063,K2SmAuCl6,-1.9821492829499991
mp-1112064,K2SbAuI6,-0.894255460449999
mp-1112065,K2ScAuCl6,-1.9481863519499991
mp-1112066,K2LuAuCl6,-2.002456453116666
mp-1112067,K2SbAuCl6,-1.459792964449999
mp-1112068,K2GdAuCl6,-1.9933991514499991
mp-1112069,K2InAuBr6,-1.298367553116666
mp-1112070,K2GaAuBr6,-1.269336524199999
mp-1112071,K2GaAuI6,-0.9051468902
mp-1112072,K2ErAuCl6,-2.001434957449999
mp-1112073,K2BiAuCl6,-1.50171681745
mp-1112074,K2DyAuCl6,-1.997442196616666
mp-1112101,K2AgAuBr6,-1.139873478616666
mp-1112253,K2VAuF6,-2.49830392445
mp-1112256,K2ScAuF6,-2.982572055949999
mp-1112257,K2RuAuF6,-2.03377602945
mp-1112258,K2RhAuF6,-2.064346536449999
mp-1112260,K2MoAuF6,-2.3708560474500002
mp-1112261,K2MnAuF6,-2.430091991243102
mp-1112262,K2IrAuF6,-1.954425388449999
mp-1112264,K2GaAuF6,-2.4938974002
mp-1112267,K2AsAuF6,-2.230307611199999
mp-1112289,K2AgAuF6,-2.007797548616666
mp-1112320,K2YAuF6,-2.965587578449999
mp-1112322,CsK2AuF6,-2.209982249415517
mp-1112330,K2BiAuF6,-2.325779534449999
mp-1112333,K2TlAuI6,-0.894728185783334
mp-1112414,K2TlAuCl6,-1.420444628783334
mp-1112417,K2TaAuF6,-2.7032767431833333
mp-1112418,K2SbAuBr6,-1.231971925449999
mp-1112421,K2PrAuCl6,-1.964214408616666
mp-1112422,K2NdAuCl6,-1.9717997982000002
mp-1112425,K2LaAuCl6,-2.00618061795
mp-1112427,K2GaAuCl6,-1.5316420162000002
mp-1112428,K2EuAuCl6,-1.87955891895
mp-1112432,K2AsAuI6,-0.8351918832
mp-1112434,K2AsAuCl6,-1.3907846072
mp-1112435,K2AsAuBr6,-1.165906745199999
mp-1112439,K2InAuI6,-0.9368278671166661
mp-1112479,K2AgAuCl6,-1.343391598616666
mp-1112494,K2NbAuF6,-2.564217577449999
mp-1112499,Cs2TlAuF6,-2.092772584333334
mp-1112500,Cs2TlAuBr6,-1.295307690264369
mp-1112523,Cs2RbAuCl6,-1.593291858681035
mp-1112524,Cs2RbAuBr6,-1.374250371681034
mp-1112579,Cs2LiAuF6,-2.330019072264368
mp-1112594,Cs2RhAuF6,-2.037752590000005
mp-1112595,Cs2ScAuF6,-2.982187894666674
mp-1112599,Cs2KAuF6,-2.349037818656034
mp-1112611,Cs2InAuF6,-2.409391365000002
mp-1112619,Cs2AsAuCl6,-1.449626452681035
mp-1112620,Cs2InAuCl6,-1.446286303500016
mp-1112626,Cs2KAuCl6,-1.603382724656035
mp-1112631,Cs2ScAuBr6,-1.716857844431035
mp-1112632,Cs2AsAuBr6,-1.235131907681034
mp-1112633,Cs2GdAuCl6,-1.911720818708337
mp-1112640,Cs2HgAuF6,-2.048917743181035
mp-1112641,Cs2NbAuF6,-2.604898890000007
mp-1112788,Cs2KAuBr6,-1.380862430656034
mp-1112916,Cs2YAuI6,-1.361819761931035
mp-1112918,Cs2YAuBr6,-1.7802310989310342
mp-1112919,Cs2YAuCl6,-1.928428167749996
mp-1112920,Cs2SmAuCl6,-2.064388163431034
mp-1112921,Cs2TbAuCl6,-2.074623368597698
mp-1112922,Cs2SbAuI6,-0.983709885931034
mp-1112923,Cs2ScAuI6,-1.295620720431034
mp-1112924,Cs2InAuBr6,-1.3743806655977011
mp-1112925,Cs2GaAuI6,-0.9836247296810341
mp-1112926,Cs2SbAuCl6,-1.5356811929310341
mp-1112927,Cs2DyAuCl6,-2.074860158097701
mp-1112928,Cs2ErAuCl6,-1.932270901083342
mp-1112929,Cs2AsAuI6,-0.914217492681035
mp-1112930,Cs2BiAuBr6,-1.3583528409310341
mp-1112947,Cs2GaAuF6,-2.508960635681034
mp-1112994,Cs2NaAuCl6,-1.577567931068966
mp-1113026,Cs2LiAuCl6,-1.366561905166668
mp-1113077,Cs2NaAuF6,-2.339185635068966
mp-1113108,Cs2YAuF6,-2.3129444361666742
mp-1113110,Cs2RuAuF6,-1.995628077800003
mp-1113146,Cs2SbAuF6,-2.361835531931034
mp-1113148,Cs2BiAuF6,-2.3907575349310353
mp-1113149,Cs2AsAuF6,-2.266177911681034
mp-1113212,Cs2TaAuF6,-2.931536520543312
mp-1113213,Cs2ScAuCl6,-1.856329277499995
mp-1113218,Cs2GaAuCl6,-1.579664933681034
mp-1113305,Cs2HgAuBr6,-1.220187976181035
mp-1113379,Cs2TlAuI6,-0.990864224264368
mp-1113393,Cs2SbAuBr6,-1.314688800931034
mp-1113397,Rb2CeAuCl6,-2.0056116735
mp-1113408,Cs2PrAuCl6,-2.050515237097701
mp-1113409,Cs2NdAuCl6,-2.056644206681034
mp-1113410,Cs2LaAuCl6,-2.093776056431034
mp-1113412,CsRb2AuCl6,-1.526740434465517
mp-1113414,Cs2InAuI6,-1.023982195597701
mp-1113416,Cs2GaAuBr6,-1.332175688681034
mp-1113420,Cs2EuAuCl6,-1.9576893084310352
mp-1113421,Cs2BiAuI6,-1.018955944931034
mp-1113443,Cs2BiAuCl6,-1.367402592749996
mp-1113450,Rb2TmAuCl6,-2.0427505335
mp-1113464,Rb2PrAuCl6,-2.008961528666666
mp-1113476,Rb2HgAuF6,-2.03702589475
mp-1113494,Rb2LuAuCl6,-2.042162392166666
mp-1113498,Rb2LaAuCl6,-2.051405501
mp-1113500,Rb2EuAuCl6,-1.9213189270000002
mp-1113536,Cs2TlAuCl6,-1.493798939264369
mp-1113546,Rb2HgAuBr6,-1.18546055275
mp-1113575,Cs2AgAuBr6,-1.203201411097701
mp-1113576,Cs2AgAuF6,-1.948868648333331
mp-1113640,Rb2SmAuCl6,-2.025409937
mp-1113641,Rb2TbAuCl6,-2.038038047166666
mp-1113655,Rb2DyAuCl6,-2.038942085666666
mp-1113656,Rb2ErAuCl6,-2.042189960499999
mp-1113660,Rb2NdAuCl6,-2.016020950249999
mp-1113688,Rb2NaAuF6,-2.341675199637931
mp-1113735,Rb2LiAuF6,-2.358340762833333
mp-1113893,KRb2AuF6,-2.3230942082249992
mp-1113945,Na2LiAuCl6,-1.351259954609195
mp-1114026,Rb2NaAuBr6,-1.3255393136379299
mp-1114125,KRb2AuBr6,-1.334208712225
mp-1114398,KRb2AuCl6,-1.561162481225
mp-1114414,Rb2LiAuCl6,-1.5543466068333331
mp-1114668,Rb2NaAuCl6,-1.54909807063793
mp-568448,Cs2AgAuCl6,-1.393409239097701
mp-1195201,K2Au(IO3)5,-1.03311708823913
mp-1105366,KAu(IO3)4,-0.9127745626250001
mp-1105854,CsAu(IO3)4,-0.9105916060919531
mp-1188141,RbAu(IO3)4,-0.913650205972222
mp-558536,RbCdAuS2,-0.8898162174999981
mp-558332,K5Au(IO)2,-1.368802641624999
mp-1196015,Cs2PAuS4,-1.03948542580665
mp-556894,Rb2SbAuS4,-0.901673334062499
mp-555018,RbNa2AuO2,-1.292620134209769
mp-559067,KNa2AuO2,-1.313027489168102
mp-1199528,H18AuN6Cl,-0.452121209903845
mp-569173,TlAu(CN)2,0.14891050760416102
mp-1180277,NaAu(Cl2O)2,-0.581654202359913
mp-1197888,InAu(I4N)2,0.42053456048611104
mp-1202583,GaAu(I4N)2,0.5732214893749991
mp-557807,CsK2AuO2,-1.254032160692528
mp-558523,PAuClF3,-1.731200628033081
mp-733613,H6AuBrN2,-0.49799225637500005
mp-1102029,CsUTe3Au,-0.728710834109193
mp-1104020,CsUAuSe3,-1.246796904447735
mp-1182487,AuCClO,-0.598513941250001
mp-19942,BaGdAuSe3,-1.7516820228385401
mp-556896,Ba4AgAuO6,-2.196761526805555
mp-561703,AuCClO,-0.624214645
mp-561744,Na4CoAuO5,-1.4323775468652031
mp-867830,RbUAuSe3,-1.234343149921873
mp-867843,RbUTe3Au,-0.7221915720833311
mp-560605,LiLa4AuO8,-3.152200023809523
mp-560558,CsCdAuS2,-0.8536747171249881
mp-1229194,AgAu(IO3)4,-0.713105557037036
mp-866660,K3P2AuSe8,-0.8266830439132631
mp-1201410,Sb4Au(Xe2F11)2,-2.145535552741935
mp-557602,KBa4Au(CO)4,-1.056897591232143
mp-1199469,Na3H4Au(SO2)4,-1.495973734206896
mp-1212700,HAuC4(N2O)2,0.701136693229167
mp-1214973,AuC2S2BrN4,0.5553375220000001
mp-641962,KAuC2(SN)2,-0.210763586152786
mp-641965,RbAuC2(SN)2,-0.30219043624999903
mp-1196856,H6AuC3NO,-0.22975661229166702
mp-1224626,H6AuN2ClO4,-0.515048154285713
mp-723082,Na5Te2H36AuO28,-1.361955597711525
mp-734937,Na5Te2H36AuO28,1.285168097982918
mp-1227557,BiTe2Pb2AuS3,-0.590508887314814
mp-1201608,Sb2AsAuXeF14,-2.2824825702631593
mp-1229193,BiSb8Pb6AuS20,-0.586369676249998
mp-569084,H3AuC2NCl,-0.17643388484375003
mp-696650,KH2Au(Cl2O)2,-0.675195231975
mp-761916,NaH4Au(Br2O)2,-1.126315193031609
mp-1173391,P2H24AuC8I,-0.18311172581349203
mp-1202779,RbH12AuC4(SO3)4,-0.9785926818382351
mp-1200298,RbAuC4S4(OF)12,-1.740650892132354
mp-560718,TeH12AuC4S3N,-0.21639846621212103
mp-1106075,KAuC2N2Cl2O,-0.137444211916666
mp-1200739,H8AuC2S2N4Cl,-0.448918374722222
mp-740707,H8AuC2S2BrN4,-0.424668519722221
mp-1196083,KH2AuC4N4O,-0.175797196711539
mp-1199405,H16AuC12S2N3O4,-0.34443958289473503
mp-1201227,H24AuC16S2N3O4,-0.268345970999999
mp-1201845,LiAuC4S4(OF)12,-1.724165057156863
mp-1202992,NaH12AuC4(SO3)4,-0.9689433766582151
mp-1238563,H16AuC12S2N3O4,-0.340747132368419
mp-698289,BH11AuC4IN2,-0.19667672664583302
mp-1173427,P2H26AuC9Cl3O4,-0.284746875928571
mp-555921,PH9AuC3ClO3,-0.6766153195634921
mp-603254,PH9AuC3S3Cl,-0.31287246643849104
mp-1196087,LiH12AuC4(SO3)4,-0.9747168614215681
mp-721059,H8AuC2S2N4ClO4,-0.480012156477273
mp-705526,H16AuC6S2N4ClO4,-0.33608437316176404
mp-645449,Te3Au2,-0.046720417041675004
mp-658803,Au2O3,-0.431655587
mp-1185854,MgAu2,-0.44139412666666605
mp-27258,P3Au2,-0.16322673278571
mp-1080493,Y3Au2,-0.7708489620000021
mp-1018103,ZrAu2,-0.6513819550000001
mp-1018113,YAu2,-0.9331089233333311
mp-1018123,TiAu2,-0.48334265888888606
mp-1018148,ScAu2,-0.8795857516666671
mp-1018152,LuAu2,-0.9748493022222241
mp-1018153,HfAu2,-0.6161256433333331
mp-1063174,GdAu2,-0.863354680000005
mp-11241,DyAu2,-0.8639723905555521
mp-11252,MnAu2,-0.35741518482758206
mp-1172831,TiAu2,1.605538301111115
mp-12761,BeAu2,-0.135768288333335
mp-2123,Nb3Au2,-0.185682601999997
mp-2466,ErAu2,-0.9648461144444501
mp-560,TmAu2,-0.9735891799999951
mp-570179,TbAu2,-0.8575134788888891
mp-990,HoAu2,-0.9597976883333291
mp-1104164,Ba3Au2,-0.6060228466666711
mp-1104457,Eu3Au2,-0.6917288836666691
mp-30421,Sr3Au2,-0.681544805999999
mp-30367,Ca5Au2,-0.572746819285717
mp-1025,ThAu2,-0.719212409999992
mp-12072,UAu2,-0.48725831833332706
mp-1606,NbAu2,-0.16714933
mp-30363,BaAu2,-0.740450749999997
mp-30401,KAu2,-0.345464143750002
mp-1188500,Nb3Au2,-0.06308983899999701
mp-947,Au2S,-0.118341825937501
mp-1052,NaAu2,-0.40535113999999806
mp-19871,PbAu2,-0.065584006666663
mp-570113,BiAu2,0.0009074599999980001
mp-30380,GaAu2,-0.146765094166667
mp-27253,Au2O3,-0.45785339499999805
mp-1190478,PbAu2,-0.07032664208333
mp-1185844,MgAu2,-0.460192709999996
mp-1185857,MgAu2,-0.44936982166666906
mp-30423,VAu2,-0.052279986666661005
mp-2019934,MgAu2,-0.48058166500000205
mp-1071698,EuAu2,-0.743723903333335
mp-1072087,LaAu2,-0.805862649999995
mp-1077442,CeAu2,-0.6765218616666651
mp-1524494,CeAu2,-0.83175767166666
mp-30415,PrAu2,-0.756491362222221
mp-434,SrAu2,-0.791557604999998
mp-443,CaAu2,-0.774710868333334
mp-31293,Eu2Sn5Au2,-0.521666737777781
mp-570298,Ba(SbAu)2,-0.6094389680000031
mp-1210728,Mg(AuF6)2,-1.620728395666666
mp-28153,Ca(AuF6)2,-1.586015681333335
mp-1103787,Si7(Ni2Au)2,-0.33096345576923003
mp-1190197,Er7(TeAu)2,-0.9514364275757581
mp-1190610,Ho7(TeAu)2,-0.873789292727265
mp-1215362,ZrInAu2,-0.47369777624999904
mp-1215524,ZnCdAu2,-0.22370931124999702
mp-1222015,MgCdAu2,-0.38466087874999805
mp-1222137,Mg3HgAu2,-0.459501997916665
mp-978596,Sm2Au2O5,-1.7419438183333331
mp-29169,Cd(AuF4)2,-1.535642893636362
mp-29170,Hg(AuF4)2,-1.292650168863637
mp-1078625,Tm2InAu2,-0.9257234940000041
mp-1078810,Sc2SnAu2,-0.8056897260000021
mp-1079059,Er2InAu2,-0.9226637353333331
mp-1079489,Zr2InAu2,-0.579681421500004
mp-1079501,Tb2InAu2,-0.8103618609999971
mp-1079634,Tb2SnAu2,-0.8401783176666661
mp-1079933,Y2InAu2,-0.9165704800000011
mp-1080661,Gd2SnAu2,-0.8723579289999971
mp-1080710,Ho2InAu2,-0.8083109793333331
mp-1095152,Lu2InAu2,-0.916163961666666
mp-1205295,Yb2PbAu2,-0.8761785269999961
mp-1205853,Nd2InAu2,-0.770846971333335
mp-1205889,Yb2InAu2,-0.9327591100000001
mp-1205890,Pr2InAu2,-0.7532620869999941
mp-1205925,Sm2InAu2,-0.787879326333337
mp-1205933,Sm2CdAu2,-0.714357422999997
mp-1206565,Pr2CdAu2,-0.685415546666661
mp-1206585,Ce2InAu2,-0.667567475333338
mp-1207149,Nd2CdAu2,-0.701418167
mp-1207248,La2CdAu2,-0.7377183380000011
mp-1207749,Y2SnAu2,-0.6009163079999991
mp-1207817,Tm2SnAu2,-0.612215146000002
mp-1208212,Tm2InAu2,-0.705517860999998
mp-1210987,Lu2SnAu2,-0.7094529996666491
mp-1211035,Lu2InAu2,-0.695465992166663
mp-1212383,Ho2SnAu2,-0.610512270999997
mp-1213322,Dy2SnAu2,-0.6118449756666641
mp-20723,Ca2PbAu2,-0.701022883999998
mp-21866,Dy2InAu2,-0.8102908430000011
mp-1078411,Sr(SnAu)2,-0.558447864000004
mp-1080533,U(SiAu)2,-0.17869653399999802
mp-12780,Sr(GaAu)2,-0.601445783999999
mp-1245420,Ca5(AuN2)2,-0.8085570150000011
mp-1147644,Na(AuO2)2,-0.714637547339901
mp-1147657,K(AuO2)2,-0.762977022464283
mp-1105466,Dy2SnAu2,-0.8349497706666641
mp-1105797,Lu2InAu2,-0.9147418861666601
mp-1105850,Y2SnAu2,-0.8252630214999991
mp-1188107,Tm2SnAu2,-0.8322174210000021
mp-1188482,Tm2InAu2,-0.9233753139999971
mp-1188895,Ho2SnAu2,-0.8328904409999971
mp-1207424,Zr2InAu2,-0.6240544114999971
mp-1209036,Sc2SnAu2,-0.8425256424999871
mp-1209388,Sc2InAu2,-0.825378769999997
mp-31143,Er2SnAu2,-0.839084712499998
mp-1068398,Eu(GeAu)2,-0.5034884070000001
mp-1068797,Nd(GeAu)2,-0.543642695500001
mp-1068908,Ce(GeAu)2,-0.502726022000003
mp-11859,La(SiAu)2,-0.6273807170000031
mp-1228646,Ba(GeAu)2,-0.490121752
mp-13466,Sm(SiAu)2,-0.5709742010000001
mp-13918,Sr(GeAu)2,-0.5135345099999991
mp-16249,Th(GeAu)2,-0.44983202999999805
mp-16250,Th(SiAu)2,-0.552545454000005
mp-16251,Yb(SiAu)2,-0.526100515000001
mp-20166,Np(SiAu)2,-0.455028007750001
mp-2017654,ThPbAu2,-0.544064527499998
mp-21229,Eu(SiAu)2,-0.511080367000001
mp-22615,Gd(SiAu)2,-0.583401358000001
mp-28796,Sr5(AuO4)2,-2.343511762000006
mp-2954,Dy(SiAu)2,-0.5494636823333321
mp-31202,Pr(SiAu)2,-0.6156472323333311
mp-3147,Er(SiAu)2,-0.559005314666666
mp-5057,Nd(SiAu)2,-0.585883005500002
mp-5173,Ce(SiAu)2,-0.580852651999996
mp-541381,Pu(SiAu)2,-0.136850561083338
mp-5510,U(SiAu)2,-0.23593733999999802
mp-569013,Ho(SiAu)2,-0.578963702999999
mp-569577,Tb(SiAu)2,-0.565424515333332
mp-570452,Y(SiAu)2,-0.600702303999997
mp-7364,Ca(SiAu)2,-0.513944779999997
mp-7365,Sr(SiAu)2,-0.5201371719999991
mp-7883,Ca(GeAu)2,-0.436452003999996
mp-17512,Zn(AuF4)2,-1.536380692272729
mp-18125,Ag(AuF4)2,-1.201867790454545
mp-22552,Ni(AuF4)2,-1.450527636818182
mp-569984,Cs3Au2Br11,-1.199117871185345
mp-8585,Pd(AuF4)2,-1.2320154699999981