material_id,formula,formation_energy_per_atom
mp-1207964,U2(Al3Rh)3,-0.6614053490476121
mp-1207966,U2(Al3Ir)3,-0.627252994285716
mp-1207988,Tm2(Al3Ir)3,-0.8522076760714291
mp-1207996,Tm2(Al3Pd)3,-0.7254968576285701
mp-1208005,Tm2(Al3Rh)3,-0.818823629642863
mp-1208540,Tb2(Al3Rh)3,-0.83282389380952
mp-1208552,Tb2(Al3Ir)3,-0.8674888277380971
mp-1208555,Tb2(Al3Pd)3,-0.749201165816158
mp-1208899,Sm2(Al3Ir)3,-0.9537910164285751
mp-1208905,Sm2(Al3Rh)3,-0.825825899285711
mp-1208953,Sm2(Al3Co)3,-0.535517935000003
mp-1209089,Sc2(Al3Co)3,-0.5512272074999991
mp-1209795,Pr2(Al3Ir)3,-0.921127299166666
mp-1209803,Pr2(Al3Rh)3,-0.803656582380955
mp-1209890,Nd2(Al3Ir)3,-0.9372499960714311
mp-1209920,Nd2(Al3Rh)3,-0.8156827732142901
mp-1210911,Lu2(Al3Ir)3,-0.840492035238092
mp-1210912,Lu2(Al3Rh)3,-0.8835847020238101
mp-1211311,La2(Al3Ir)3,-0.8354373171428551
mp-1211312,La2(Al3Rh)3,-0.794752714642859
mp-1212357,Ho2(Al3Ir)3,-0.8606958946428551
mp-1212359,Ho2(Al3Pd)3,-0.7383067456972151
mp-1212854,Er2(Al3Pd)3,-0.7330825184395591
mp-1212861,Er2(Al3Rh)3,-0.8253606421428571
mp-1213071,Dy2(Al3Pd)3,-0.742849385821427
mp-1213073,Dy2(Al3Ir)3,-0.864415525595234
mp-1213083,Dy2(Al3Rh)3,-0.8296075655952371
mp-1213364,Gd2(Al3Rh)3,-0.881293271785712
mp-1213885,Ce2(Al3Ir)3,-0.8373413835714271
mp-1213916,Ce2(Al3Rh)3,-0.846833182857141
mp-569472,Gd2(Al3Ir)3,-0.942938167142857
mp-640880,Nd2(Al3Co)3,-0.5133943392857161
mp-641651,U2(Al3Co)3,-0.34509313869047403
mp-1228742,Al9Co2Ni,-0.37846439656249803
mp-1228622,Al9Cr(BO9)2,-3.271842929277777
mp-1229042,Al9Fe2(SiO6)4,-3.145338203076923
mp-569739,ErAl9(Fe2Si3)2,-0.372983695749999
mp-6563,TbAl9(Fe2Si3)2,-0.374409545708333
mp-1197399,LaTi2Al9O19,-3.496087226747312
mp-1228997,Al9SiC7N,-0.11352843555555502
mp-7062,Mg3Al9FeSi5,-0.092182186388888
mp-1229075,Al9Si2BO19,-3.3576390623924732
mp-686653,KMg4Al9(SiO4)9,-3.297848844529662
mp-695133,CsMg4Al9(SiO4)9,-3.301908251350088
mp-695215,Y2Al9Si27(N15O)3,-1.435571570348837
mp-744386,Al9Fe2Si4HO24,-3.06298690228125
mp-1197323,CaZrAl9BO18,-3.44695557663889
mp-559642,CaZrAl9BO18,-3.447073039638889
mp-695202,Mg4Al9Cu(SiO4)9,-3.238361179322034
mp-1227545,BaSrMn2Al9PbO20,-3.09875275958418
mp-1227544,Ca8Al9Fe3Si12(HO13)4,-3.127196104715908
mp-1227584,Ca8Al9Fe3Si12(HO13)4,-3.127006502784089
mp-570400,Ba7Al10,-0.23075273117647002
mp-16511,Mn3Al10,-0.23770068029177802
mp-16722,Al10V,-0.101596936136364
mp-18142,Ca(Al5Cr)2,-0.180187588560613
mp-757911,MgAl10O16,-3.390900439444444
mp-760795,Al10ZnO16,-3.300505136666666
mp-28499,Al10Ge2O19,-3.138372869193547
mp-28503,Al10Si2O19,-3.337935889032257
mp-1334368,Al10(Bi2O9)3,-2.425748600116279
mp-1247851,Al10Si2O19,-3.332268047580645
mp-1247887,Al10Si2O19,-3.343859447580645
mp-1192563,Lu(Al5Os)2,-0.44347139435896804
mp-1192913,Gd(Al5Ru)2,-0.563891383076922
mp-1193564,Tb(Al5Fe)2,-0.356524340897433
mp-1193796,U(Al5Ru)2,-0.505896983846154
mp-1193938,Ce(Al5Fe)2,-0.35677411461538305
mp-1193957,Pr(Al5Ru)2,-0.562262926282049
mp-1207698,Y(Al5Ru)2,-0.5160285173076881
mp-1207859,Y(Al5Re)2,-0.35197709910256403
mp-1208007,Tm(Al5Fe)2,-0.348328116923076
mp-1208145,Tm(Al5Re)2,-0.34586202269230903
mp-1208361,Tb(Al5Ru)2,-0.519319874743583
mp-1208386,Tb(Al5Re)2,-0.409051072692307
mp-1208900,Sm(Al5Ru)2,-0.57203264076923
mp-1209309,Pr(Al5Os)2,-0.521499417820511
mp-1209798,Pr(Al5Fe)2,-0.341009327435897
mp-1209871,Nd(Al5Os)2,-0.527496756730768
mp-1209876,Nd(Al5Ru)2,-0.5679600744230761
mp-1209904,Nd(Al5Fe)2,-0.34763123480769104
mp-1210893,Lu(Al5Fe)2,-0.34239208205128
mp-1211263,La(Al5Fe)2,-0.351026705384615
mp-1211269,La(Al5Ru)2,-0.5215293349999991
mp-1211408,Lu(Al5Re)2,-0.340439854615385
mp-1212162,Ho(Al5Fe)2,-0.35288069538461203
mp-1212388,Ho(Al5Ru)2,-0.5132906561538401
mp-1212490,Ho(Al5Re)2,-0.349771004102563
mp-1212826,Er(Al5Ru)2,-0.5113333042307651
mp-1212845,Er(Al5Fe)2,-0.35160060076922905
mp-1213047,Er(Al5Re)2,-0.406735627307692
mp-1213056,Dy(Al5Fe)2,-0.35492902089743505
mp-1213146,Dy(Al5Re)2,-0.40721033192307404
mp-16744,Y(Al5Fe)2,-0.35377482576923003
mp-20548,U(Al5Fe)2,-0.26410529653845904
mp-31364,Ce(Al5Ru)2,-0.5154062223076921
mp-568030,Th(Al5Fe)2,-0.349005878076923
mp-1223260,La(Al5Cu)2,-0.22615622128204801
mp-1227019,Ce2Mn7Al10,-0.2950044576588
mp-1358345,Al10(Cu2O7)3,-2.297559487972973
mp-720112,Sr5Al10(Si7O24)2,-3.387667153376623
mp-1228063,Ba3TiAl10O20,-3.450860982450979
mp-1019529,Ba8Al10B12O41,-3.24796155359155
mp-1218540,SrCa4Al10(SiO5)10,-2.633702072866667
mp-690987,Na7Al10Si14(AgO16)3,-2.9486297460323803
mp-1210794,Na2CaAl10(H3O10)2,-1.995488277186119
mp-1229215,Al11O18,-3.131654437241379
mp-1214889,Al11Re4,-0.400964897999998
mp-1214894,Al11Cr4,-0.150564295466665
mp-2856,Mn4Al11,-0.276990866781609
mp-1103785,Pr3Al11,-0.40402590678571304
mp-1104100,Nd3Al11,-0.410152832321427
mp-1104395,Sm3Al11,-0.405191413571429
mp-1213865,Ce3Al11,-0.40233300571428404
mp-16505,La3Al11,-0.421035652499999
mp-1094700,Mg18Al11,0.0033497427586200003
mp-1217111,Ti5Al11,-0.447983258958332
mp-675682,Al11NO15,-3.247849188518518
mp-1214980,Al11(CoSi)6,-0.37736340293478204
mp-1227750,Ca6MnAl11,-0.293289839051723
mp-759230,NaAl11O17,-3.358037780909604
mp-760755,KAl11O17,-3.372858417146526
mp-1183021,Al11(PO4)12,-2.977127406277665
mp-1210041,Nb6Al11Ir,-0.424828269999999
mp-1214955,Al11NO17,-3.01904848637931
mp-1252068,KAl11O17,-3.3801228221465243
mp-2206289,Al11TlO17,-3.215056239956895
mp-3405,NaAl11O17,-3.360404121944086
mp-766248,Al11InO17,-3.293090156436781
mp-766387,RbAl11O17,-3.3769185659482472
mp-860798,NaAl11O17,-3.35218867625446
mp-1376797,NdAl11O18,-2.42370665625
mp-757092,NdAl11O18,-3.374913260583334
mp-780987,NdAl11O18,0.142208807416666
mp-758571,Al11TlO17,-3.308075045114943
mp-849760,Al11AgO17,-3.247858661091953
mp-1215382,Zr4Al11Si,-0.5074404128125031
mp-757376,KAl11O17,-3.36641666662931
mp-766293,Al11AgO17,-3.248198066264368
mp-863358,KAl11O17,-3.379337824560344
mp-1185468,LiMg17Al11,-0.004814024425286
mp-1185737,Mg17Al11Cd,-0.006456783965516
mp-1185738,Mg17Al11Au,-0.050480548448275
mp-1185739,Mg17Al11Hg,-0.015534769568965
mp-1185740,Mg17Al11Ga,-0.018105306637930002
mp-1185741,Mg17Al11In,-0.006723221781608
mp-1185742,Mg17Al11Pb,0.004704547068965
mp-1185743,Mg17Al11Pt,-0.08489981913793
mp-1185744,Mg17Al11Rh,-0.067968188448275
mp-1185747,Mg17Al11Sn,-0.010450465172413001
mp-1185751,Mg17Al11Si,-0.0018318481034470002
mp-1185759,Mg17Al11Tl,0.0033002031609200002
mp-1185781,Mg17Al11Zn,-0.011640288793103
mp-532424,KAl11O17,-3.372795969215517
mp-676014,NaAl11O17,-3.356714086082045
mp-865352,Mg17Al11Pd,-0.066058249482758
mp-865489,Mg17Al11Ag,-0.018628987816091
mp-1217109,Ti4Al11Zn,-0.381780121458333
mp-1217228,Ti4Al11Ni,-0.395257079583333
mp-1226920,Ce2Al11Pd3,-0.594096406132811
mp-1227018,EuMgAl11O19,-3.347471657343749
mp-1223152,LaMgAl11O19,-3.467031464687499
mp-1229270,Al11H2NO17,-2.96678178814516
mp-1248874,K2Al11Si13(Ag3O16)3,-2.725265376018072
mp-1249531,Sr5Al11TlSi13O48,-3.248165132222222
mp-1254519,Ca5Al11TlSi13O48,-3.215754748760684
mp-677572,Na8Al11Si13(AgO16)3,-2.9322906420004142
mp-686232,Na7Al11Si13(AgO12)4,-2.851644918027973
mp-686588,RbNa10Al11Si13O48,-3.061202826762567
mp-686702,Ca4Al11Si13(AgO16)3,-3.109347089683544
mp-686718,Sr5Al11TlSi13O48,-3.240215342606838
mp-690919,Na8Al11Si13(AgO16)3,-2.839833347663065
mp-695373,Na4Al11Si13Ag7O48,-2.78116882297812
mp-695452,K2Al11Si13(Ag3O16)3,-2.714184495897589
mp-703276,Ca5Al11TlSi13O48,-3.191451245811965
mp-705861,Rb10NaAl11Si13O48,-3.071719742968425
mp-706809,Ca2Al11Si13Ag7O48,-2.862925160144032
mp-720212,Rb9Na2Al11Si13O48,-3.073222792051309
mp-720971,Ca12Al11Si3Cl5O32,-3.403650273492063
mp-1227819,Ca8Al11Fe(Si3O13)4,-3.235680912619047
mp-1227897,Ca8Al11Fe(Si3O13)4,-3.237326822380953
mp-1248154,K6Al11Si13Ag5O48,-2.841348297371486
mp-686585,K6Al11Si13Ag5O48,-2.8351318902630522
mp-695608,Rb8BaNaAl11Si13O48,-3.089704640260724
mp-1214901,Al12Fe7,-0.31331543842105103
mp-1104165,MnAl12,-0.09883573907161801
mp-11227,Al12W,-0.072104121538459
mp-1648,Al12Re,-0.15187291480768902
mp-16719,Al12Tc,-0.180129973846152
mp-550,Al12Mo,-0.113242641538461
mp-1198296,Al12Ru,-0.05767859365384401
mp-1194073,Ta17Al12,-0.19155757518850802
mp-2151,Mg17Al12,-0.009331720172413
mp-1185648,Mg16Al12Au,-0.044862016206896005
mp-1185653,Mg16Al12Cl,-0.032634454482758
mp-1185676,Mg16Al12I,0.019837052586206
mp-17017,Al12Co4Cu,-0.387651981372548
mp-685242,Sr7Al12O25,-3.336027221477273
mp-1183866,Ce(Mg4Al3)4,-0.041113679655172
mp-1184188,Er(Mg4Al3)4,-0.046400096896551
mp-1184194,Dy(Mg4Al3)4,-0.047036524540229004
mp-1184744,Hf(Mg4Al3)4,-0.018851851724137003
mp-1185175,Li(Mg4Al3)4,-0.016171505977011003
mp-1185176,La(Mg4Al3)4,-0.04662792637931
mp-1185278,Gd(Mg4Al3)4,-0.048277029999999006
mp-1185483,Lu(Mg4Al3)4,-0.041498171954022
mp-1185643,Mg16Al12Ag,-0.008278617988505
mp-1185644,Mg16Al12Bi,0.010710468965517
mp-1185645,Mg16Al12Au,-0.033270498275862
mp-1185651,Mg16Al12Cd,-0.004226750344827001
mp-1185656,Mg16Al12Co,0.008749669655172
mp-1185658,Mg16Al12Cr,0.022886586551724
mp-1185659,Mg16Al12Cu,0.000283863793103
mp-1185661,Mg16Al12Fe,0.025176230689655
mp-1185663,Mg16Al12Ga,-0.011764994051724001
mp-1185668,Mg16Al12Hg,-0.008957470086207
mp-1185669,Mg16Al12O,-0.11434818017241301
mp-1185671,Mg16Al12Ge,0.0005252587931030001
mp-1185673,Mg16Al12Mo,0.027536090344827003
mp-1185678,Mg16Al12Pb,0.007135361379310001
mp-1185680,Mg16Al12Ni,-0.009346901379310001
mp-1185681,Mg16Al12Ir,-0.041568305172413
mp-1185688,Mg16Al12Os,0.004061815517241
mp-1185689,Mg16Al12P,0.010681422943349
mp-1185690,Mg16Al12Pd,-0.047723282413793006
mp-1185700,Mg16Al12Pt,-0.06173516689655101
mp-1185701,Mg16Al12Re,0.030162810603448
mp-1185702,Mg16Al12Ru,-0.015057232413792001
mp-1185703,Mg16Al12Rh,-0.046631463793103005
mp-1185704,Mg16Al12S,-0.028045562672413003
mp-1185706,Mg16Al12Si,0.016680338965517003
mp-1185707,Mg16Al12Se,-0.026706585598059003
mp-1185708,Mg16Al12Sb,-0.003930591724137
mp-1185709,Mg16Al12Sn,-0.0028748729310340004
mp-1185712,Mg16Al12Tc,0.009443006034483
mp-1185713,Mg16Al12Te,-0.011428971264367
mp-1185716,Mg16Al12V,0.022926092758620002
mp-1185717,Mg16Al12W,0.049174003103447
mp-1185719,Mg16Al12Zn,-0.005958700344827
mp-1185722,Mg16BeAl12,0.033712816724138
mp-1185724,Mg16MnAl12,0.014782243174792
mp-1185727,Mg16ScAl12,-0.041336710517241006
mp-1185728,Mg16PaAl12,-0.008540301724138001
mp-1185730,Mg16TaAl12,0.024328389057471003
mp-1185733,Mg16TiAl12,-0.004851699080459001
mp-1185735,Mg16ZrAl12,-0.031351741379309
mp-1185745,Mg16UAl12,0.019931850344828
mp-1186062,Na(Mg4Al3)4,0.00037299960761
mp-1186467,Pm(Mg4Al3)4,-0.049496812327585
mp-1186690,Pr(Mg4Al3)4,-0.046280429712643005
mp-1186845,Pu(Mg4Al3)4,-0.014453631336205001
mp-1187046,Sm(Mg4Al3)4,-0.048537012931033005
mp-1187115,Sr(Mg4Al3)4,-0.018029421034482
mp-1187287,Tb(Mg4Al3)4,-0.048520506436781005
mp-1187743,Tm(Mg4Al3)4,-0.043302177931034004
mp-1232421,Mg16Al12Tl,0.0014960350574710001
mp-975160,Nd(Mg4Al3)4,-0.049582600258620005
mp-975424,Rb(Mg4Al3)4,0.046989763534483
mp-981988,Y(Mg4Al3)4,-0.048800781724137
mp-982005,Th(Mg4Al3)4,-0.033871599655172
mp-1181563,Eu2Mn5Al12,-0.258300805771324
mp-1212749,EuAl12O19,-3.42796631156253
mp-1218531,SrAl12O19,-3.43836354
mp-1227489,CaAl12O19,-3.429087312968749
mp-757333,Al12PbO19,-3.303875141406249
mp-883306,LaAl12O19,-3.3860496071875
mp-1096823,Al12ZnS19,-1.063253166253255
mp-1195540,Dy3(Al3Ru)4,-0.662973616578946
mp-1195573,Tb3(Al3Ru)4,-0.66457157973684
mp-1207814,Y3(Al3Os)4,-0.68390664736842
mp-1207816,Tm3(Al3Os)4,-0.67658443
mp-1208023,Tm3(Al3Ru)4,-0.6549096544736821
mp-1208103,U3(Al3Fe)4,-0.282885394210522
mp-1208106,U3(Al3Co)4,-0.341095068771949
mp-1208548,Tb3(Al3Os)4,-0.6851077910526321
mp-1208914,Sm3(Al3Ru)4,-0.714670097894737
mp-1208935,Sm3(Al3Os)4,-0.671112887894737
mp-1209374,Pr3(Al3Os)4,-0.635805721315789
mp-1209381,Pr3(Al3Ru)4,-0.679984980789473
mp-1209944,Nd3(Al3Ru)4,-0.6964511861842101
mp-1209972,Nd3(Al3Os)4,-0.652752380921054
mp-1212256,Ho3(Al3Os)4,-0.6831074202631571
mp-1212260,Ho3(Al3Ru)4,-0.6611149184210511
mp-1212920,Er3(Al3Os)4,-0.585587754736844
mp-1212925,Er3(Al3Ru)4,-0.660634696578945
mp-1213200,Dy3(Al3Os)4,-0.6860419147368411
mp-1213926,Ce3(Al3Os)4,-0.585155776578948
mp-28234,CaAl12O19,-3.4289828259374993
mp-31079,Ce3(Al3Ru)4,-0.6462118089473661
mp-568842,U3(Al3Ru)4,-0.519647435263164
mp-6995,SrAl12O19,-3.43792938796875
mp-1183843,Cs(Mg4Al3)4,0.07057311242568301
mp-1183991,Eu(Mg4Al3)4,-0.043379898793103
mp-1184190,Er(Mg4Al3)4,-0.052536478965516005
mp-1185626,Mg16Al12Cd,0.002642230344827
mp-1185646,Mg16Al12Br,-0.008285783620689
mp-1185650,Mg16Al12Bi,0.033238346206896
mp-1185654,Mg16Al12Cl,-0.036143885517241
mp-1185657,Mg16Al12Cr,0.032671452758620004
mp-1185665,Mg16Al12Ga,-0.005483194741379
mp-1185670,Mg16Al12Ge,0.018337110862069
mp-1185677,Mg16Al12Pb,0.017131569310344
mp-1185683,Mg16Al12I,0.033668819482758
mp-1185684,Mg16Al12O,-0.11753394982758501
mp-1185685,Mg16Al12In,-0.0016769188505740002
mp-1185710,Mg16Al12Sn,0.00785186637931
mp-1185715,Mg16Al12Tl,0.008302665057471001
mp-1185718,Mg16Al12Te,0.011258816666666002
mp-1185720,Mg16Al12Zn,0.00035202034482700005
mp-1185723,Mg16Al12V,0.028484965172413
mp-1185725,Mg16PaAl12,-0.022542760689654003
mp-1185726,Mg16ScAl12,-0.044748965344827
mp-1185729,Mg16MnAl12,0.022589901795482002
mp-1185732,Mg16TaAl12,0.023706679057471
mp-1185734,Mg16TiAl12,-0.006377092183907001
mp-1185746,Mg16NpAl12,0.023053119008621
mp-1185753,Mg16UAl12,0.0023932389655170003
mp-1186061,Na(Mg4Al3)4,0.00195094960761
mp-1186464,Pm(Mg4Al3)4,-0.053748672327585005
mp-1186688,Pr(Mg4Al3)4,-0.050818079367815
mp-1187106,Sr(Mg4Al3)4,-0.022916239310344002
mp-1187293,Tb(Mg4Al3)4,-0.05422983126436701
mp-1187472,Th(Mg4Al3)4,-0.041055227586206
mp-971834,Y(Mg4Al3)4,-0.052905008965516004
mp-972093,Tm(Mg4Al3)4,-0.05131340379310301
mp-972591,Sm(Mg4Al3)4,-0.053697312931033005
mp-972924,La(Mg4Al3)4,-0.051746367068965
mp-973970,Li(Mg4Al3)4,-0.012299706321838001
mp-975395,Nd(Mg4Al3)4,-0.052542602327585
mp-983411,Lu(Mg4Al3)4,-0.050049900229884
mp-1200279,Mg11(Al2Cu)6,-0.12421557120689601
mp-1221672,MnAl12Fe,-0.188397641995073
mp-1185647,Mg16Al12Ag,-0.018759697298850003
mp-1185649,Mg16Al12Br,-0.012463414310344001
mp-1185652,Mg16Al12Cd,-0.008496564827586001
mp-1185660,Mg16Al12F,-0.119659867413792
mp-1185664,Mg16Al12Ga,-0.013911658879310002
mp-1185672,Mg16Al12H,0.02541055788793
mp-1185674,Mg16Al12N,-0.008470091206896001
mp-1185675,Mg16Al12Hg,-0.012985030431034002
mp-1185679,Mg16Al12In,-0.008014348505746
mp-1185682,Mg16Al12Pb,0.005741599999999
mp-1185686,Mg16Al12Pd,-0.062701240344827
mp-1185691,Mg16Al12Pt,-0.078163804827586
mp-1185711,Mg16Al12Sn,-0.007051226724137
mp-1185714,Mg16Al12Tl,0.002675029885057
mp-1185721,Mg16Al12Zn,-0.010011135862068001
mp-1185731,Mg16ScAl12,-0.031895093620689
mp-1185736,Mg16ZrAl12,-0.023934439655172002
mp-973924,Li(Mg4Al3)4,-0.016288469080459
mp-975559,Nd(Mg4Al3)4,0.9023197090517241
mp-976925,Na(Mg4Al3)4,0.007955987883472
mp-765688,LaAl12O19,-3.407997023124999
mp-1215487,Zr3NbAl12,-0.49488364531249807
mp-1218595,Sr6Al12Bi2O27,-3.283709219680849
mp-560993,CaAl12Si4O27,-3.36388194125
mp-1214214,Ca14Al12Zn4O35,-3.168846013
mp-1210313,Na8Al12SO28,-2.689916677112948
mp-1215158,Al12Ga(S2O33)2,-0.649302113463856
mp-1222730,Na2Ca17Al12O36,-3.307834084294905
mp-1229336,Al12Ge(Se2O35)2,-0.416187969935345
mp-677550,Ca5Al12Si12(AgO24)2,-3.178303399789029
mp-677726,Al12Si12Ag16S5O48,-2.458759822625447
mp-1200402,Y5Mg5Al12(Fe2Si3)2,-0.35187819953125105
mp-1200833,Dy5Mg5Al12(Fe2Si3)2,-0.352239072916667
mp-1265516,La13Al12Si18(N13O5)3,-2.055365579123711
mp-695367,La13Al12Si18(N13O5)3,-2.043646254278351
mp-1181018,NaAl12Ga(S2O33)2,-0.701780040462849
mp-1212074,La13Al12Si18(N2O)18,-2.003024864175258
mp-1248193,Al12Si12Ag16S5O48,-2.462017470905016
mp-695601,Na7Al12Si12H6ClO48,-2.903314608339013
mp-1224323,KNa3Al12H24(SO7)8,-2.19993202664796
mp-1203739,K3NaAl12Si12(HO6)8,-2.9973814618229673
mp-1205072,KNa3Al12Si12(HO6)8,-2.986505902695095
mp-1221546,Na16Al12Si12I3ClO48,-3.039123857794227
mp-1209017,SrPr12Al12Si18(N2O)18,-1.435347508762886
mp-1222235,Mg3Al12FeSi4(BO9)4,-3.251357421861111
mp-1260118,Sr3Nd10Al12Si18(N2O)18,-2.109219332319587
mp-534935,Sr3Pr10Al12Si18(N2O)18,-2.102567933676976
mp-720118,Sr3Nd10Al12Si18(N2O)18,-2.105764495103092
mp-1202900,Al13Fe4,-0.32674975529411604
mp-1203489,Al13Rh4,-0.6470661445955891
mp-17880,Al13Ru4,-0.5809319082352941
mp-567929,Al13Os4,-0.53140296588235
mp-1094692,Mg16Al13,-0.0020617610344820002
mp-1952,Ba7Al13,-0.217451488499998
mp-568683,La16Al13,-0.421708557586208
mp-1094683,Mg16Al13,0.0007663644827580001
mp-1198336,Al13Co4,-0.352241550245097
mp-30751,Al13Co4,-0.35372664161764505
mp-1094685,Mg16Al13,-0.005688499999999001
mp-1211217,Li6Al13Cu8,-0.20041386111111
mp-505572,Al13(CrSi)4,-0.13274694530612002
mp-1262123,Al13(CuS8)3,-0.9714250136848941
mp-1264143,Al13(CuSe8)3,-0.7696538866328121
mp-28790,Al13(TlS7)3,-1.300437446554053
mp-1198152,Al13Si5ClO38,-2.560690453333333
mp-706657,Al13Si5H18ClO38,-2.597859470966665
mp-534982,Al13Si5H14Cl(O17F2)2,-2.760704525598591
mp-1193055,Ca13Al14,-0.29042181111111204
mp-12766,Mg13Al14,0.078594100555555
mp-532016,Ca12Al14O33,-3.43658640059322
mp-33318,Ca11Al14O32,-3.447732863508824
mp-5512,Sr4Al14O25,-3.461146685581395
mp-645302,Al14Co5Si2,-0.35352815779761804
mp-1248857,Al14(CuSe8)3,-0.8418800285708851
mp-1258739,Al14(CuS8)3,-1.072241362864586
mp-39003,Mg3Al14O24,-3.382991400365854
mp-1094063,Sr12Al14O33,-3.403017828220338
mp-530149,Ca12Al14O33,-3.435694530254236
mp-1251571,Rb11Al14Si10(AgO16)3,-2.8447549812500013
mp-686347,Ca16MgAl14Si9O56,-3.112088095364582
mp-686458,Rb11Al14Si10(AgO16)3,-2.817917438691861
mp-765944,Al15Fe9O32,-2.817826997857143
mp-1223826,Ho4HfAl15,-0.451998050999998
mp-1223914,Ho4ZrAl15,-0.47064173224999806
mp-1105883,Tb4HfAl15,-0.44611051699999904
mp-1106409,Tb4ZrAl15,-0.467755441249999
mp-1190803,GdEr4Al15,-0.45347064291667005
mp-979428,YEr4Al15,-0.459305676166667
mp-567554,Ce2(Al5Ru)3,-0.5274837653749991
mp-801915,Al15Fe9O32,-1.6046355303571431
mp-1194643,Al15Ni3Ge4,-0.214984843522727
mp-1217136,Ti8Al15Rh7,-0.7718418018888871
mp-1192626,Th2(Al3Ni2)5,-0.5200320359259251
mp-1223196,La5Al15Cu4Au,-0.511970521799999
mp-1225911,La5Al15Cu2Au3,-0.5903970446
mp-555471,La3Ti5Al15O37,-3.409431416027777
mp-706815,KBa7Al15Si17O64,-3.405372870838942
mp-697210,Ca11YAl15Cr4SiO48,-3.098710709374999
mp-1194114,Mg13Al16,0.033463216724138004
mp-1228746,Ca43Al16Pb13,-0.41900612138888704
mp-1192673,Zr6Al16Rh7,-0.828366046896551
mp-1192680,Ti6Al16Os7,-0.5721906540517231
mp-1192877,Ti6Al16Co7,-0.515703900775857
mp-1192947,Sc6Al16Ru7,-0.671189298965517
mp-1193118,Ti6Al16Ru7,-0.6033621586206861
mp-1193121,Ti6Al16Ir7,-0.761984236206896
mp-1193241,Hf6Al16Pd7,-0.7573526651724121
mp-1193272,Zr6Al16Pt7,-0.9174733796551721
mp-1193568,Zr6Al16Ir7,-0.966491318620691
mp-1193679,Zr6Al16Ni7,-0.64103096137931
mp-1193840,Zr6Al16Pd7,-0.7551117965517241
mp-1193847,Hf6Al16Co7,-0.5419002251724131
mp-1194154,Sc6Al16Rh7,-0.8293289617241371
mp-1194178,Ti6Al16Pd7,-0.6708122936206871
mp-1194206,Sc6Al16Os7,-0.606137375517242
mp-1194261,Sc6Al16Pd7,-0.7680927989655161
mp-1194264,Sc6Al16Ni7,-0.6070693855172411
mp-1194423,Zr6Al16Co7,-0.5695696565517241
mp-1194450,Ti6Al16Rh7,-0.7392818303448281
mp-1194470,Hf6Al16Pt7,-0.9630460293103421
mp-1208277,Ti6Al16Fe7,-0.37604262551724105
mp-1212464,Hf6Al16Ir7,-0.8190861031034481
mp-865235,Ti6Al16Ni7,-0.5638814393103441
mp-866136,Zr6Al16Ru7,-0.7132116018965521
mp-973769,Hf6Al16Os7,-0.631305023017234
mp-978662,Sc6Al16Ir7,-0.8709456475862061
mp-978976,Ti6Al16Pt7,-0.8932724372413781
mp-983480,Hf6Al16Rh7,-0.8702147972413821
mp-570981,Ce2Al16Pt9,-0.998514541111106
mp-1196667,Al16As9O76,-1.083294838985149
mp-1227233,Ce4Al16Ni4C3,-0.319274680185184
mp-1223304,Mg2Al16Fe6Si20O73,-3.108028392350428
mp-534807,Ca5Y7Al16Cr2(SiO24)2,-3.442913215125
mp-570651,Al17Mo4,-0.29805339773809303
mp-1198587,Dy2Al17,-0.116030440526314
mp-1201145,Er2Al17,-0.099329130614034
mp-1202952,Tb2Al17,-0.12235813947368201
mp-675472,Al17(NO7)3,-3.114723667804878
mp-1247832,Al17(BC3)6,-0.081390237098575
mp-16569,Al17(Re2Si)2,-0.220832062898551
mp-18663,Al17(SiPd2)4,-0.48023532281609504
mp-1208847,Sr2Ti5Al17O38,-3.428430958978495