material_id,formula,formation_energy_per_atom
mp-1093654,Y2CuHg,2.013698105624996
mp-1093655,Y2CuNi,2.194385042500001
mp-1093661,Zr2CuIr,2.85662604
mp-1093674,Mg2CuPt,1.409173735
mp-1093698,Y2CoCu,2.2816862025
mp-1093742,Hf2FeCu,3.205332397500001
mp-1093749,BeCuPd2,2.00530131875
mp-1093772,Li2CuAu,0.7720630608333331
mp-1093776,Mg2ZnCu,1.2180170025000001
mp-1093820,Ca2CuRh,1.366585424930555
mp-1093831,ZrCuRh2,2.2219236875
mp-1093834,La2ZnCu,2.002400094999999
mp-1093915,TiCuRh2,2.139747009166667
mp-1093942,Ta2CuOs,4.185725320222225
mp-1093947,Sr2CuPd,1.0492458825
mp-1093953,GaCuPd2,1.5464649843749991
mp-1093961,Sc2InCu,2.074018219999997
mp-1093979,Zr2CuRu,2.953790035
mp-1093981,Zr2CoCu,3.0066219275
mp-1095713,CuAgPd2,2.141462203750002
mp-1095726,Nb2CuRe,3.865531676875001
mp-1095743,Sc2CuAg,2.158273213750002
mp-1095777,Zr2GaCu,2.941761308124999
mp-1095785,Be2CoCu,2.3516816575
mp-1095791,Y2CuAu,1.9439999399999999
mp-1095798,CuNiPd2,2.37607208875
mp-1095831,InCuAu2,1.006712345833334
mp-1095839,Sc2CuNi,2.14271402
mp-1095840,Y2CuPd,1.8914712462499992
mp-1095874,FeCuRh2,2.92842874
mp-1095908,Ca2CuPd,1.121868405562505
mp-1095924,LiGa2Cu,1.199074524507079
mp-1095932,Zr2CuRe,3.4183552168749998
mp-1095940,Zr2ZnCu,2.9830148875
mp-1095966,InCuNi2,2.058888015000001
mp-1095970,FeCuPd2,2.26035583
mp-1095976,Mg2GaCu,1.379185103124999
mp-1096033,HfCuAu2,1.892959047500001
mp-1096047,ScCuAu2,1.370997846249999
mp-1096049,CuPdAu2,1.7536344925
mp-1096051,LiCd2Cu,0.828143702708334
mp-1096057,Sc2TlCu,2.079035687361109
mp-1096063,Be2CuOs,2.9025743625000002
mp-1096070,La2CuOs,1.995301367499999
mp-1096080,Y2GaCu,2.203799670625001
mp-1096102,Ti2CuRe,3.145687767291665
mp-1096112,Hf2CoCu,3.140123497500001
mp-1096127,Y2CuAg,2.163076491249999
mp-1096177,Ti2CuIr,2.607250468333332
mp-1096185,Ti2CuOs,3.121109829166666
mp-1096213,Sc2CuPd,1.924676422499999
mp-1096218,Y2TlCu,2.070725148923614
mp-1096231,LiMg2Cu,1.158903160833333
mp-1096237,LiIn2Cu,1.105335640958339
mp-1096285,Li2CuAg,1.00675366886905
mp-1096293,Ti2GaCu,2.610307796458332
mp-1096300,Y2InCu,2.111264865624999
mp-1096359,Cd2CuPt,1.402704580000001
mp-1096365,Zn2CoCu,1.6091542874999991
mp-1096374,TlCuPd2,1.6189664276785751
mp-1096413,LiCuAg2,1.281917394583333
mp-1096414,Nb2CuTc,3.632008864999996
mp-1096418,Hf2CuNi,3.179059160000001
mp-1096419,Co2CuGe,2.387379186875
mp-1096424,Zr2CuPt,2.77406487
mp-1096438,Mg2CuPd,1.307216815
mp-1096453,CuPd2Au,2.086449245000001
mp-1096456,ScZn2Cu,1.649292256249999
mp-1096468,LiZn2Cu,0.971920094166666
mp-1096489,InCuRh2,2.360764355
mp-1096503,Mg2CuAg,1.2260187470833341
mp-1096513,Ta2CuRe,4.227100849125001
mp-1096519,NbCuRh2,2.5877432799999998
mp-1096524,La2CuGe,1.625032389999994
mp-1096553,Zn2CuRh,1.666449705
mp-1096561,Zr2CuTc,3.13761146875
mp-1096565,Sc2CuRh,1.9198440325
mp-1096571,CuNiAu2,1.81803003
mp-1096582,Sc2CuHg,1.9569478381250032
mp-1096594,CuNi2Ge,2.078756674062498
mp-1096596,TiCuAu2,1.694898046666666
mp-1096607,Zn2CuPd,1.2628409
mp-1096720,MnCuPt2,2.254379075517242
mp-1096722,Li2ZnCu,1.039747350833333
mp-1096745,Y2CuOs,2.455025070468746
mp-1096758,CuSnPd2,1.6577657418750031
mp-1097079,ScCuHg2,1.270121144374997
mp-1097093,MnCuRh2,2.536130701379308
mp-1097096,Ti2CuRh,2.5228962433333333
mp-1097113,Be2CuPd,1.917268615
mp-1097186,HfCuRh2,2.300532915000001
mp-1097219,Ti2MnCu,2.972325748850574
mp-1097287,Mg2CuRh,1.7860401774999999
mp-1097304,Mg2CuIr,2.0168319275
mp-1097319,MgCuAu2,1.05609698125
mp-1097321,MgCuPd2,1.770053513750001
mp-1097344,CuHgPd2,1.678191949374999
mp-1097357,Y2CuPt,1.724837631145831
mp-1097385,Li2CuPd,1.2854612166666661
mp-1097397,Ba2CuPd,1.0541156425
mp-1097409,Hf2CuMo,3.533619087500001
mp-1097425,CuSiTc2,3.027161259375003
mp-1097458,YCuAu2,1.3142727375
mp-1097462,Mg2CuAu,1.0490328375
mp-1097525,LiCuAu2,0.9799801916666661
mp-1097549,Sc2CoCu,2.251819624999999
mp-1097581,CdCuPd2,1.749445425000001
mp-1097593,CuSbPd2,1.726257451041668
mp-1097599,Hf2CuTc,3.236399931250001
mp-1097601,GaCuNi2,2.059158471874999
mp-1097611,GaCuAu2,0.9994067781250001
mp-1097651,Be2CuNi,2.239957135
mp-1178387,Cu(AgO)2,-0.49757373066666505
mp-1218105,Ta2CuO6,-2.761863309962962
mp-1222160,Mg4CuO5,-2.5658777275
mp-1393470,YCuF5,-3.18143590857143
mp-4711,Li2CuO2,-1.6624233733333331
mp-5456,Sr2CuO3,-2.436278400833332
mp-546226,Ca2CuO3,-2.223663377499999
mp-5869,Ca2CuO3,-2.528575830833333
mp-755974,Na2CuO2,-1.3240365065517241
mp-8790,Ba2CuO3,-2.286241100833322
mp-997055,CuBiO2,-1.22938036375
mp-1177695,Li3CuS2,-1.210664334166665
mp-1443188,ZnCuF4,-2.128396865833333
mp-754352,Na3CuO2,-1.327947006522987
mp-1097010,CuPbO2,-1.159154878749999
mp-1215282,ZrCrCu,0.052451073333333
mp-1215980,YFeCu,-0.023290815000000003
mp-1216385,VCuS4,-0.540586807499999
mp-1216605,TmFeCu,-0.100400950000002
mp-1216896,TiCuS4,-0.675030133055554
mp-1217542,TbFeCu,-0.039253015555555
mp-1217827,TaVCu,0.072003800444439
mp-1221885,MnCuO4,-1.013310017155171
mp-1221951,MgZnCu,-0.187991289999999
mp-1222314,LuFeCu,-0.12446101555555501
mp-1223889,HoFeCu,-0.06681248166666501
mp-1225545,ErCuNi,-0.33290044499999805
mp-1225569,ErFeCu,-0.08645535833333301
mp-1225619,DyFeCu,-0.052104455555554006
mp-1226680,CeFeCu,-0.031297919999998
mp-1272781,Cr2CuO4,-1.9352015850000002
mp-1289263,Fe2CuO4,-1.4052379621428561
mp-1292782,Mn2CuO4,-1.6507893622660101
mp-25196,VCuO4,-1.644716896666667
mp-31237,CuAsF7,-2.091704110833332
mp-33546,Fe2CuO4,-1.368033957142857
mp-34563,Mn2CuO4,-1.631344135837438
mp-34783,Ga2CuO4,-1.833723287142857
mp-675296,Mn2CuO4,-1.647394257980296
mp-761472,Co2CuO4,-1.142483596428572
mp-770931,CuTeO4,-1.150493004444444
mp-1096949,CuGeI3,-0.239376777999999
mp-1207908,V4CuO11,-2.0902311809375
mp-1215639,Zr2Ga3Cu,-0.524600808750003
mp-1216980,U4CuTe12,-0.7780505164705841
mp-1217410,Ti27CuP16,-1.107520555324675
mp-1223212,La6CuSb15,-0.856199762727272
mp-1223908,Hf2Ga3Cu,-0.42617854874999905
mp-1227717,Ca2In3Cu,-0.467092459083332
mp-2371810,VCuO3,-1.796338071
mp-27249,CuCO3,-1.297941310000001
mp-34237,Mn2CuO4,-1.668504666551724
mp-38090,Fe2CuO4,-1.377966618095237
mp-673663,CuGe2P3,0.053637551984126
mp-674984,CuSi2P3,-0.06941328607028101
mp-685418,Fe2CuO4,-1.370842517321429
mp-685544,Ga2CuO4,-1.8281410295238092
mp-698748,Mn2CuO4,-1.641409176432677
mp-705869,Mn2CuO4,-1.649341787837439
mp-755381,V3CuO8,-2.063724037499999
mp-773044,LiCuO2,-1.425870712083333
mp-867741,LiCuF4,-2.09456757327778
mp-1078168,In2CuSe4,-0.518665067368551
mp-29403,GaCuI4,-0.6676176529166651
mp-35031,Pr5CuSe8,-1.9104824841666521
mp-36252,Nd5CuSe8,-1.9139411526785581
mp-38162,Sm5CuSe8,-1.907097279285681
mp-540284,CuPO4,-1.837937719107142
mp-675739,Ce5CuSe8,-1.853594075624998
mp-1102385,CuCS,1.299409829895833
mp-752773,Li4CuF5,-2.716604668166664
mp-644883,CuAg3S2,-0.112988973298608
mp-1213467,CuSO7,-0.49056389861111005
mp-1246319,KCuN,0.10798163155555401
mp-625181,Cu(HO)2,-1.0361292145
mp-645206,CuReO4,-1.768991949166666
mp-676377,Ti2CuS4,-1.30192113452381
mp-754399,Na4CuO3,-1.367014455689654
mp-774736,LiCuS,-0.90352046611111
mp-778925,Na6CuO4,-1.330768972115987
mp-28273,K3CuO2,-1.287806514875
mp-779502,Na3CuO2,-1.334845698397988
mp-1215371,Zr4CuNi,-0.21318330000000002
mp-1222132,Mn10CuGe5,-0.043604627769396005
mp-2646994,Zr4CuPd,-0.294602531666665
mp-1225292,Dy2CuAg3,-0.260100366388886
mp-1040880,LaCrCuO6,-2.004698488333334
mp-1041762,Zn2CuWO6,-1.700905845999999
mp-1047481,Mg2CuWO6,-2.245661577999999
mp-1176532,Mn7Cu(PO4)12,-2.126485466782816
mp-1178058,Li2Cr3CuO8,-1.967773018869047
mp-1178771,YCu(WO4)2,-2.371722252499999
mp-1179980,NdCu(WO4)2,-2.3592743547916672
mp-1181556,CuN2(Cl2O)2,0.7152934766666661
mp-1181578,ErCu(WO4)2,-2.384500118333333
mp-1181628,DyCu(WO4)2,-2.38053245097222
mp-1215706,ZnCu(WO4)2,-1.874977739999999
mp-1215775,Zn3InCuS5,-0.9165413559166661
mp-1216064,ZnCu(MoO4)2,-1.735525131666667
mp-1216387,VCu(PS3)2,-0.67444827442857
mp-1216412,Zn11Cu(MoO4)12,-1.891289962777779
mp-1218681,Sr4Mn2CuO9,-2.496094741512214
mp-1218745,Sr4CuIr2O9,-2.200795143229166
mp-1218848,Sr8Cu(WO6)3,-2.7864867205
mp-1222641,Li3Nb4CuO12,-2.722790548500001
mp-1224032,In2CuTe3I,-0.5150408154761891
mp-1224081,In2CuSe3Br,-0.7573715293377961
mp-1224103,In2CuTe3Br,-0.586364529761904
mp-1224202,In2CuTe3Cl,-0.49204989357143103
mp-1224824,Mn5Cu(Te2O5)6,-1.617741552909482
mp-1228885,Ba2V2CuF12,-3.326447592352941
mp-1232366,CuAuClO2,-0.608528248
mp-1238822,TiCrCuS4,-0.9419314829761891
mp-1238838,TiCrCuS4,-0.9615525954761901
mp-1238864,TiCrCuS4,-0.9571857244047611
mp-1239120,HfCrCuS4,-1.150238291785713
mp-1239132,HfCrCuS4,-1.085650643571427
mp-1239144,HfCrCuS4,-1.036038572857141
mp-1239149,HfCrCuS4,-1.020185654999998
mp-1239220,ZrCrCuS4,-1.006919863571429
mp-1239230,TiCrCuS4,-1.103423782976189
mp-1403285,In2CuTe3Br,1.007839840238096
mp-21403,CoCuP2O7,-2.124464477662338
mp-2219311,MgV3CuO8,-2.205811615000001
mp-2224161,Na2MgCuO2,-1.345937026293102
mp-2224168,MgCuTeO4,-1.5230272416666661
mp-2230686,MgMn5CuO12,-1.776489791297641
mp-2240255,MgV2CuO6,-2.1827921695
mp-26247,Li5Cu(PO4)2,-2.522494556309524
mp-26248,Li4Cu(PO4)2,-2.458453795841269
mp-504348,Li3Cu(PO4)2,-2.344803872091836
mp-556002,Li6Cu(B2O5)2,-2.467809772222222
mp-556640,CuBi(WO4)2,-1.867399923333334
mp-661485,K2Cu(CO3)2,-1.820334435863637
mp-663963,Rb2TaCuS4,-1.334530715291666
mp-664012,Rb2TaCuSe4,-1.195347857088541
mp-666297,K2TaCuSe4,-1.169870870776041
mp-672160,K2VCuSe4,-1.121553406109374
mp-672161,Rb2NbCuS4,-1.304164604999999
mp-672170,Rb2NbCuSe4,-1.184850788671874
mp-672966,LiCu(PO3)4,-2.306191382883598
mp-673128,LiCuPO4,-2.095770612925169
mp-753557,Li2CuSbO5,-1.7567463412962971
mp-754013,LiV4CuO12,-2.041994792962963
mp-754406,Li2CuPO4,-2.294052068288691
mp-757800,LiCuCO3,-1.6403951883333332
mp-759711,LiCuCO3,-1.616193517592591
mp-760664,LiCu(PO3)2,-2.245867005761904
mp-760683,Li4Cu(PO3)6,-2.511693298316914
mp-761021,Li3Cu(TeO3)4,-1.576769843833333
mp-761867,Li2Cu(PO3)4,-2.391463362117795
mp-767395,Li3CuSbO5,-1.9385771249999992
mp-772939,Li5Cu(PO4)2,-2.5210155353720243
mp-773062,Li2Mn3CuO8,-1.8603878246756982
mp-773146,Li2CuPO4,-2.29065608641369
mp-773438,Li5Cu(PO4)2,-2.523006332559523
mp-774280,Li2Fe3CuO8,-1.496204462976189
mp-774459,Li8Ti16CuS32,-1.617072042631578
mp-776378,LiCuBO3,-2.020491504953703
mp-778949,Li2CuPO4,-2.29078891641369
mp-779472,Li5Cu(PO4)2,-2.522271840684523
mp-779539,Li2CuPO4,-2.295021557038691
mp-779643,Li2CuPO4,-2.289869276726191
mp-779916,Li2CuPO4,-2.294844031726191
mp-780392,Li5Cu(PO4)2,-2.523014057247024
mp-780764,LiCuP4O11,-2.309414955553221
mp-849448,Li2Fe2CuO6,-1.548110614242423
mp-935925,Li3Cu(PO4)2,-1.230837999948979
mp-1177887,Li2TiCuO4,-2.35132654
mp-1216476,V8Cd3CuO24,-2.103165018611113
mp-1221712,MnCu(AgO2)2,-1.037204460158045
mp-1238835,TiCrCuS4,-1.116555448333332
mp-1238861,TiCrCuS4,-1.123827922619046
mp-1239124,ZrCrCuS4,-1.1932968907142851
mp-1239131,HfCrCuS4,-1.211552932142856
mp-1239275,ZrCrCuS4,-1.185504033571428
mp-1247303,HfCrCuS4,-1.21731517142857
mp-2241896,MgCuTeO4,-1.49324406595238
mp-754100,Li2FeCuO4,-1.655275493333333
mp-754778,Li2CrCuO4,-1.900415508333333
mp-755308,Li2CuNiO4,-1.419693103333333
mp-755399,Li2CuSnO4,-1.841344981458332
mp-760397,LiCoCuO4,-1.251820814761905
mp-1222564,LiCoCuF6,-2.27483603037037
mp-1218202,SrLaCuO4,-2.632974647857143
mp-1222801,LaNdCuO4,-2.921664736071427
mp-1222802,LaNdCuO4,-3.006572671785714
mp-1226412,Cs2CuBrCl3,-1.623413836330049
mp-2222855,Pr2MgCuO4,-2.384438464791666
mp-2227285,La2MgCuO4,-2.4963455043750002
mp-2227604,Nd2MgCuO4,-2.398247412499999
mp-545359,KNa2CuO2,-1.3349603116681021
mp-11114,KCuPdSe5,-0.715435133621094
mp-11115,RbCuPdSe5,-0.722680079277343
mp-1178896,V2Cu(PO7)2,-1.63813268075188
mp-1181649,CuPbSO6,-1.182265819722222
mp-1188206,CuPbSO6,-1.405879248611111
mp-1190173,CuPb3(ClO2)2,-1.322879303499998
mp-1192522,Ba2CuP2O9,-2.636698107091837
mp-1203900,V2Cu(PO7)2,-1.636750173646616
mp-1209839,Nd2CuSnO6,-2.721422250499999
mp-1211456,La2ZrCuO6,-3.25967698575
mp-1238830,TiCrCuS4,-1.086995669761904
mp-1239233,HfCrCuS4,-1.188190254999999
mp-1262892,Li2Cu(Si2O5)2,-2.786334691127451
mp-1337297,Zn2CuSbO6,-1.4829548339999992
mp-1344257,Mg2TaCuO6,-2.498479761233334
mp-1346599,Ca2TaCuO6,-2.7686618067333333
mp-1346978,TaZn2CuO6,-1.9615532577333321
mp-1372293,Ca2CuSbO6,-2.282519315499999
mp-1372341,Mg2CuSbO6,-2.032471999499999
mp-14735,La2CuSnO6,-2.773569056
mp-555219,CuWO3F2,-2.036153685714285
mp-558998,K2Cu(Si2O5)2,-2.812701526294119
mp-561179,Ba2CuIO2,-2.230958756666665
mp-755025,VCu(PO4)2,-2.307575525357143
mp-755148,CuSb(PO4)2,-2.106167429523809
mp-755760,CuBi(PO4)2,-2.093222128273809
mp-755864,TiCu(PO4)2,-2.588273093968253
mp-756522,CuTe(PO4)2,-2.026380579662698
mp-758849,CuSn(PO4)2,-2.223373917023809
mp-761614,CoCu(PO4)2,-1.926310803690476
mp-774802,NbCu(PO4)2,-2.4742552491071432
mp-775025,MnCu(PO4)2,-2.157938219351395
mp-775167,FeCu(PO4)2,-2.086375916190475
mp-849775,Li2Cu(Si2O5)2,-2.756935452745098
mp-867746,CrCu(PO4)2,-2.207990337440476
mp-9344,TiTlCuTe3,-0.6743097169444441
mp-1197716,BaCu(SiO3)2,-2.866174638375001
mp-11613,Ba2CuSi2O7,-2.9573345916666662
mp-1190935,K2CuP2O7,-2.408616286148808
mp-15748,Sr2CuSi2O7,-2.9785083429166663
mp-17265,Sr2CuGe2O7,-2.391299852083332
mp-22067,Ba2CuGe2O7,-2.384455024999999
mp-734395,CuN6(ClO4)3,1.166394894090908
mp-1216993,U2Co3CuGe4,-0.265124127999997
mp-1220947,NaIn10CuS16,-0.8545058388587831
mp-1223151,La2Ti2CuO8,-3.24223670128205
mp-1223801,La2Mn3CuGe4,-0.47215423137931006
mp-1224106,In3Cu(AsSe)2,-0.46553428414062703
mp-1224550,In10CuAgS16,-0.7991402452976171
mp-1226330,Cr8Ga3CuSe16,-0.796552851071428
mp-1226582,Cr8Fe3CuS16,-0.845954579642857
mp-1221994,Mn3Cu(Te2O5)4,-1.5934812516289512
mp-1147552,SrNb2CuO7,-2.6990130368181813
mp-1177950,Li2FeCuO4,-1.688454932083333
mp-1177995,Li2CuSnO4,-1.8283057264583331
mp-1178032,Li2CrCuO4,-1.8914598164583332
mp-1215495,YbZnCuSi2,-0.44990786999999804
mp-1215939,YCuSi2Ni,-0.6823230799999991
mp-1216266,UCrCuSi2,-0.24977482638334403
mp-1216306,UCoCuGe2,-0.16434147799999801
mp-1216320,UCoCuSi2,-0.353210543999998
mp-1216599,UCuSi2Ni,-0.42757751599999805
mp-1216642,TlFeCuSe2,-0.38047811960416805
mp-1216774,UCuNiGe2,-0.22895965399999701
mp-1219557,RbMnCuS2,-0.923388710086207
mp-1219564,RbCoCuS2,-0.708456734499999
mp-1221565,MnTlCuSe2,-0.5378635011903741
mp-1222926,LaCuSi2Ni,-0.6471853549999991
mp-1222995,LaMnCuGe2,-0.49504434858620705
mp-1223172,La2Ti3CuO10,-3.307084711250001
mp-1223207,KZnCuTe2,-0.6795196061166661
mp-1223456,KCoCuS2,-0.728111932449999
mp-1223472,KFeCuS2,-0.747083136449999
mp-1223485,KFeCuSe2,-0.667712038387499
mp-1223937,In2CuAsSe2,-0.48976380177082
mp-1226605,CeCuSi2Ni,-0.663051931999999
mp-1226624,CeCoCuSi2,-0.584566799999999
mp-1226625,CeCuSi2Pd,-0.7212999200000001
mp-1226642,CeCuSi2Ru,-0.6039583979999991
mp-1228825,CsFeCuS2,-0.7854010069310341
mp-1228841,CsCoCuS2,-0.622247969642856
mp-2226548,Sr2MgCuO4,-2.227425233124999
mp-2227558,La2MgCuO4,-2.410444356875
mp-2239932,Nd2MgCuO4,-2.347010381249999
mp-2240025,Pr2MgCuO4,-2.321072549791666
mp-754213,Li2ZrCuO4,-2.445841007083332
mp-754238,Li2CuBiO4,-1.543059442083333
mp-754716,Li2CuNiO4,-1.4593532327083332
mp-755354,Li2CoCuO4,-1.508496558333334
mp-755371,Li2MnCuO4,-1.7996651443247131
mp-757583,Li2TiCuO4,-2.37520178125
mp-10950,Sr2Cu(PO4)2,-2.883831950714285
mp-1103616,CuC2(SN3)2,1.805350560896914
mp-1177346,Li4Mn5CuO12,-1.7834516874085682
mp-1178069,Li2Fe3CuO8,-1.492214376904761
mp-1179106,U2Cu(GeO9)2,-1.050588458260869
mp-1194491,Zn3CuP2O9,-2.112055268285715
mp-1199735,CsY2CuTe4,-1.311749573915229
mp-1218633,Sr3Nb2CuO9,-2.942502097666667
mp-1222046,MgFe4CuO8,-1.722867281071428
mp-1222453,LiLa4CuO8,-3.135025580238095
mp-1222994,LaNdCuO4,-2.931720970357141
mp-1223008,La4CuNiO8,-3.006924345357144
mp-1225235,Fe4CuNiO8,-1.450369271428572
mp-1226097,Cr6Co2CuSe12,-0.6814118508630951
mp-1226285,Cr10Co4CuSe20,-0.63881282705357
mp-1228363,Ba2Tl2CuO6,-1.7795213696969698
mp-1239037,U2Cu(GeO9)2,-1.212440406086956
mp-2218865,MgMn3CuO8,-1.794685325291778
mp-2218910,MgMn3CuO8,-1.8152451699071621
mp-2227752,Sr2MgCuO4,-2.202545669374999
mp-2227940,Na2MgCuO2,-1.433561807959769
mp-2228568,MgMn4CuO8,-1.9007118697660101
mp-2228622,MgCo5CuO8,-1.248047122999999
mp-2232260,MgFe5CuO8,-1.5025722769999992
mp-23795,CuH4(OF)2,-1.461629336111111
mp-2646918,Cs4Cu(SbCl6)2,-1.730715897822142
mp-548609,Tl2Cu(SO3)2,-1.383411421969698
mp-553974,Ba7Fe6CuF34,-3.299934332291667
mp-560502,Ba2CuTeO6,-2.177571373166666
mp-568532,CuB2(CN)8,0.199812530394736
mp-632759,CuH4(OF)2,-1.4640459794444451
mp-634716,CuH12(IN)4,-0.480817820714285
mp-752986,Li4CuNi3O8,-1.468299575208333
mp-753263,Li3Cr2CuO6,-2.05146523
mp-753827,Li3Mn4CuO8,-1.930807360107759
mp-754066,Li3Co2CuO6,-1.5579558391666661
mp-754458,Li3Cu(NiO3)2,-1.4408710833333331
mp-755180,Li3Fe2CuO6,-1.7526240233333321
mp-756169,Li3Cu(NiO2)4,-1.376834824999999
mp-756258,Li3Co4CuO8,-1.4761019175
mp-756367,Li3Fe4CuO8,-1.704922609999999
mp-756959,Li3Fe3CuO8,-1.5532539839999981
mp-756983,Li10Cu(SiO5)2,-2.4005711360144932
mp-757232,Li3Mn2CuO6,-1.898898684238506
mp-757430,Li2CuPO4,-2.27308944391369
mp-758532,LiCo2CuO6,-1.196602686333334
mp-761730,LiCo3CuO8,-1.107127973333333
mp-765577,Li6Cr5CuO12,-2.191443976666667
mp-773165,Li4Co5CuO12,-1.461822857878789
mp-774874,Li3Ti2CuO6,-2.649461859722222
mp-860886,Li7Cu(SiO4)2,-2.4463451954629623
mp-867783,Li6Fe5CuO12,-1.786804091666666
mp-9372,Ba2Cu(PO4)2,-2.874737218406594
mp-1215542,Zn2GaCuSe4,-0.828471705859374
mp-1215565,Zn2GaCuTe4,-0.585822891770832
mp-1215696,Zn2InCuS4,-0.8898318270833321
mp-1215701,Zn2InCuTe4,-0.578267237916665
mp-1215816,Zn2InCuSe4,-0.8028014945052081
mp-1227001,Cd2GaCuSe4,-0.7558723708593741
mp-1227008,Cd2GaCuTe4,-0.43059527624999505
mp-1227025,Cd2InCuTe4,-0.45266460500000205
mp-1239142,Mn2InCuSe4,-0.582260846901938
mp-20505,Ta2InCuTe4,0.11090311149999901
mp-22611,InFe2CuSe4,-0.437270218255208
mp-752606,Li2CuSiO4,-2.339410712083333
mp-1032096,Mg6CoCuO8,-2.467442120625
mp-1032102,Mg6CuSiO8,-2.537777658125
mp-1032105,Mg6TiCuO8,-2.732870538958333
mp-1032112,Mg6CuNiO8,-2.508583026875
mp-1032122,Mg6CuSnO8,-2.465873734062499
mp-1032148,Mg6CuSnO8,-2.443948712187499
mp-1032150,Mg6CuNiO8,-2.449805376875
mp-1032151,Mg6VCuO8,-2.6445700025
mp-1032153,Mg6CoCuO8,-2.490309103125
mp-1032201,Mg6CuBiO8,-2.38964873375
mp-1032202,Mg6VCuO8,-2.64647708625
mp-1032207,Mg6CuBiO8,-2.341356355624999
mp-1032239,HfMg6CuO8,-2.7158204593749993
mp-1032264,HfMg6CuO8,-2.699565091874999
mp-1032271,Mg6CdCuO8,-2.483307989374999
mp-1032273,Mg6CuSiO8,-2.503275423124999
mp-1032276,SrMg6CuO8,-2.587745319999999
mp-1032277,SrMg6CuO8,-2.582654256249999
mp-1032315,Mg6NbCuO8,-2.552183654375
mp-1032324,BaMg6CuO8,-2.394508982499999
mp-1032331,Mg6CrCuO8,-2.61528294
mp-1032334,Mg6CrCuO8,-2.631725850625
mp-1032338,Mg6CuCO8,-2.1149425934375
mp-1032347,BaMg6CuO8,-2.383827836874999
mp-1032348,Mg6CuCO8,-2.143486729062499
mp-1032362,Mg6CdCuO8,-2.473275936249999
mp-1032597,Mg6ZnCuO8,-2.576745297499999
mp-1032598,Mg6ZnCuO8,-2.585389678125
mp-1032624,Mg6FeCuO8,-2.552644878125
mp-1032638,Mg6FeCuO8,-2.51616395
mp-1032744,YMg6CuO8,-2.803874974374999
mp-1032771,YMg6CuO8,-2.75544667625
mp-1032873,Mg6MnCuO8,-2.612581954245689
mp-1032892,Mg6MnCuO8,-2.62266361799569
mp-1032922,CaMg6CuO8,-2.7224308756249993
mp-1032928,CaMg6CuO8,-2.720840669374999
mp-1035219,SrMg14CuO16,-2.8061793490625
mp-1035222,Mg14CuSiO16,-2.7702758634375
mp-1035238,Mg14CuCO16,-2.569170278906249
mp-1035240,Mg14CdCuO16,-2.754263575624999
mp-1035267,HfMg14CuO16,-2.8613619734375
mp-1035292,Mg14CuBiO16,-2.692041879374999
mp-1035311,Mg14CrCuO16,-2.8285322725
mp-1035352,Mg14CuNiO16,-2.770387041562499
mp-1035359,Mg14NbCuO16,-2.792089329999999
mp-1035374,Mg14CuSnO16,-2.73491227421875
mp-1035413,Mg14VCuO16,-2.8351199478125
mp-1035414,BaMg14CuO16,-2.700754336562499
mp-1035429,Mg14TiCuO16,-2.879729680104166
mp-1035472,Mg14CoCuO16,-2.7696792421875003
mp-1035757,Mg14FeCuO16,-2.77604262875
mp-1035800,Mg14ZnCuO16,-2.804749245937499
mp-1036013,YMg14CuO16,-2.9016862771875003
mp-1036234,Mg14MnCuO16,-2.820297166185344
mp-1036386,CaMg14CuO16,-2.875655677812499
mp-1037135,Mg30CuCO32,-2.803510046171874
mp-1037138,HfMg30CuO32,-2.947762373749999
mp-1037139,HfMg30CuO32,-2.948991554999999