material_id,formula,formation_energy_per_atom
mp-11641,Ag2SeO4,-0.8401073900967221
mp-1178564,Ag2TeO4,-0.877306362857141
mp-1215021,Ag2SO2,-0.11901113166666501
mp-1215023,Ag2AsO2,-0.152529003166665
mp-1215036,Ag2SeO2,-0.09959967213541601
mp-1215041,Ag2PO2,-0.5808117695952361
mp-5625,Ag2SO4,-1.256612797261903
mp-752666,LiAg2F4,-1.765260626309522
mp-754444,Zn(AgO2)2,-0.6901034161904751
mp-755127,Ag2GeO4,-1.071060896190475
mp-755449,Cd(AgO2)2,-0.592905131190475
mp-1093543,YAg2Pb,1.6124671904167012
mp-1093557,YZnAg2,1.4772760852717362
mp-1093619,ScTlAg2,1.517092730416664
mp-1093662,CaMgAg2,1.058783630416668
mp-1093677,LiAg2Hg,0.824556603125
mp-1093681,CaInAg2,1.006176744687497
mp-1093688,CaCdAg2,0.925523036666668
mp-1093744,ScAg2Sn,1.67568435208333
mp-1093746,NaAg2Pd,1.355082354374989
mp-1093913,LaZnAg2,1.463785888508528
mp-1093927,BaSrAg2,1.024428371666667
mp-1093948,SrLaAg2,1.509432130187502
mp-1095854,MgZrAg2,1.991901365416667
mp-1095869,ScAg2Hg,1.30826482614583
mp-1095901,SrCaAg2,1.097094547687504
mp-1095915,NaAg2Pb,1.140476738055557
mp-1095962,LiAg2Bi,1.1741461929166621
mp-1095993,ZrInAg2,1.952864620416665
mp-1096029,CaAg2Pb,1.186625891666668
mp-1096036,ScGaAg2,1.5736814098333212
mp-1096094,LiMgAg2,0.9638235920833341
mp-1096099,LiTlAg2,0.9295595511111181
mp-1096114,CdInAg2,0.88029201840278
mp-1096336,CaYAg2,1.6065198137500012
mp-1096410,LaAg2Hg,1.190540891041664
mp-1096471,YAg2Hg,1.305553916747076
mp-1096652,CaTlAg2,0.983408043749985
mp-1097110,YScAg2,2.059703301250003
mp-1097120,LiSiAg2,1.531064465833333
mp-1097139,ZnGaAg2,1.041052103546009
mp-1097257,ZnCdAg2,0.900151613322368
mp-1097413,NaLaAg2,1.432448389612066
mp-1097433,MgAg2Hg,0.824385512291666
mp-1097460,LiScAg2,1.462386410364581
mp-1097467,ScZnAg2,1.4967920154166672
mp-1097584,YGaAg2,1.622675377291666
mp-1097612,NaAg2Sn,1.192722675416664
mp-1097668,LiAg2Sb,1.171249988958329
mp-5495,Ag2PdO2,-0.471315778666665
mp-1041485,Mg(AgO2)2,-1.035236594047618
mp-1041519,Ca(AgO2)2,-1.085913939761903
mp-1041603,Zn(AgO2)2,-0.6438047204761901
mp-13211,Ag2Te2O7,-1.100079193787878
mp-1325390,Zn(AgO2)2,-0.6433479427976181
mp-1329388,Mg(AgO2)2,-1.019924769404761
mp-1330090,Ca(AgO2)2,-1.115728364047617
mp-1353803,Zn(AgO2)2,-0.6427910071428561
mp-1358036,Mg(AgO2)2,-1.023030463333333
mp-1361265,Ca(AgO2)2,-1.108363339523808
mp-675242,Ag2HgI4,-0.33721019511904804
mp-23485,Ag2HgI4,-0.512362546547618
mp-752948,LiAg2F4,-1.675338534166666
mp-1209067,Si(AgO)2,-0.793471649166665
mp-1047036,Ca(AgO2)2,-1.34347086119048
mp-1047244,Mg(AgO2)2,-1.031973649761903
mp-1047248,Zn(AgO2)2,-0.658957544761904
mp-758890,LiAg2F4,-1.710020351309523
mp-1096812,Ag2SnSe3,-0.28644151640624904
mp-1182991,Ag2TeO6,-0.538682968888888
mp-1183014,Ag2TeO6,-0.635002848888888
mp-1202965,Nb4Ag2O11,-2.5240204699019593
mp-29163,Ag2TeS3,-0.078949780572917
mp-29816,Ag2HgO2,-0.45434721466666705
mp-1215766,Zn2Ag2(MoO4)3,-1.6726700707017552
mp-1239165,TaCr3(AgS4)2,-0.8845178325476171
mp-1239182,TaCr3(AgS4)2,-0.718785022190474
mp-1239201,TaCr3(AgS4)2,-0.7153495946904741
mp-1239250,NbCr3(AgS4)2,-0.703969042738093
mp-1239260,NbCr3(AgS4)2,-0.70913334595238
mp-1246315,NbCr3(AgS4)2,-0.858437188809522
mp-2223040,MgAg2(BrO2)2,-0.616048294259259
mp-2232948,MgV4Ag2O11,-2.06224807462963
mp-2233253,MgV4Ag2O11,-2.069151966296297
mp-2240092,MgAg2(HgO2)2,-0.9630057403703711
mp-2240201,MgMn2(AgO3)2,-1.506241216745035
mp-2240506,MgAg2(HgO2)2,-0.917131437037037
mp-1239189,TaCr3(AgS4)2,-0.8944748171904741
mp-1239197,TaCr3(AgS4)2,-0.9033348707619021
mp-1239270,NbCr3(AgS4)2,-0.8646382823809501
mp-1239271,NbCr3(AgS4)2,-0.8750696180952361
mp-2227263,MgAg2(GeO3)2,-1.499546010757575
mp-1223499,KBa(AgTe2)2,-0.9445887496562491
mp-1198053,Cs3Ag2Sb3S8,-0.8063513457686771
mp-1238858,TaCr3(AgS4)2,-0.794969480047617
mp-1239175,TaCr3(AgS4)2,-0.8838247118333311
mp-1239259,NbCr3(AgS4)2,-0.7844046991666651
mp-1239269,NbCr3(AgS4)2,-0.8524147966666651
mp-1192523,Ag2S(NO)4,-0.256663681439394
mp-1223987,InAg2SbSe4,-0.318860224531249
mp-1229120,Ag2BiSbSe4,-0.22952493848958602
mp-1229125,Ag2BiSbTe4,-0.277884851249999
mp-1229127,Ag2SnBiS4,-0.28337654171874804
mp-1223011,MnAg2Sn3S8,-0.22079478698686703
mp-1224101,InAg2BiSe4,-0.37541463473958103
mp-2219033,MgCr2(AgO4)2,-1.398252464487178
mp-2232666,MgV4Ag2O11,-2.028031899074073
mp-558255,VAg2PO6,-1.876219641797618
mp-571425,Ag2Hg7(P4Br3)2,-0.356669641651139
mp-672339,Ag2Hg7(P4I3)2,-0.22751676817287902
mp-977584,Zr2ZnAg2F14,-2.932655293289484
mp-1025568,MnAg2GeTe4,-0.295916490366379
mp-1079889,ZnAg2SnS4,-0.621001458541664
mp-1080805,Ag2AsS4N,0.536835336542969
mp-1093995,ZnAg2SnSe4,-0.5823426184635411
mp-12015,KAg2AsO4,-1.346676018510416
mp-1206045,MnAg2SnTe4,-0.26405029910202005
mp-12532,KAg2PS4,-0.7215486906532721
mp-20002,FeAg2SnS4,-0.49559193854166506
mp-7394,BaAg2GeS4,-1.017806503541665
mp-9490,KAg2SbS4,-0.47151298855123003
mp-1208167,VAg2HgO4,-1.2453469615104171
mp-1217907,TaNb(AgO3)2,-2.269324537066666
mp-16967,CaV4(AgO6)2,-2.204038629912281
mp-555885,SrV4(AgO6)2,-2.211843805964912
mp-557862,BaAg2(HgO2)2,-1.119327563703704
mp-1207743,TmTa5Ag2O15,-2.9875856015217392
mp-1208376,TbTa5Ag2O15,-3.001481598550724
mp-1210770,LuTa5Ag2O15,-2.9783078711594193
mp-1212151,HoTa5Ag2O15,-2.993087641521738
mp-1212605,GdNb5Ag2O15,-2.732323519927536
mp-1212958,DyTa5Ag2O15,-2.997597712028984
mp-1213131,ErTa5Ag2O15,-2.9912018284782613
mp-1094028,TiSiAg2O5,-2.303131396296296
mp-1239205,TaCr3(AgS4)2,-0.882123256833331
mp-1246977,NbCr3(AgS4)2,-0.8065491805952361
mp-570887,K2Ag2SnSe4,-0.8404800391342581
mp-10488,Cs2Ti(AgS2)2,-1.2236720534418901
mp-1209316,Rb2Ti(AgS2)2,-1.207925935740739
mp-16102,ZnAg2P2O7,-1.9803117193849191
mp-6000,La2Ti3(AgO5)2,-3.063526957254903
mp-1041173,Be3Si3(AgO6)2,-2.313130181791666
mp-1193928,CsAg2BiS3,-0.6870099889983571
mp-1195817,Ag2Pd(NO2)4,-0.5840079503888881
mp-1211819,K3Hf4Ag2F23,-3.470602332815104
mp-19478,VAg2(PO4)2,-2.124902452316849
mp-553949,Ag2Hg2(TeO4)3,-1.105035922807017
mp-556429,Ag2Mo3SeO12,-1.549436900454281
mp-558289,UAg2(SeO4)2,-1.771008178693908
mp-560729,K3Zr4Ag2F23,-3.388010796252604
mp-570593,RbAg2(AsSe2)3,-0.5269207643663201
mp-667327,Ag2Pb8Cl4O7,-1.381790716468252
mp-704944,VAg2O3F,-1.5950548569047611
mp-705061,UAg2(WO5)2,-2.179834346388887
mp-731792,Ag2S(NO)2,-0.12160238761904701
mp-733466,Ag2As3S6N,0.31730994855903
mp-866615,CsAg2AsS3,-0.6509650747126421
mp-2239850,MgAg2(CO3)2,-1.538523369848484
mp-1196546,Ag2Ge(S2O7)3,-1.599947565999999
mp-1197599,Ag2Sn(S2O7)3,-1.616673894666667
mp-1198966,SiAg2(S2O7)3,-1.69300184611111
mp-1194095,TiAg2(IO3)6,-1.038760822469136
mp-2217576,MgAg2(SbO3)2,-1.497298527121211
mp-2217730,MgCo2(AgO3)2,-1.177666993484847
mp-2217763,MgAg2(SbO3)2,-1.458450827121211
mp-2218058,MgAg2(BiO3)2,-1.3138017553030301
mp-2223323,MgMn2(AgO3)2,-1.6115143776541272
mp-2224784,MgCo2(AgO3)2,-1.064591819848484
mp-2226914,MgAg2(BiO3)2,-1.359621621666667
mp-2240405,MgMn2(AgO3)2,-1.552142361290489
mp-555477,Ag2H3IO6,-0.7965391460069441
mp-1190325,Ag2P2PdO7,-1.785766681051587
mp-1194640,Mn3V3(AgO6)2,-1.982843567106322
mp-1197464,Ag2Te4MoO12,-1.409304284736841
mp-1203404,Ag2Mo(I2O7)2,-0.9568541320634911
mp-1207470,ZnAg2(PS3)2,-0.5570410568290031
mp-1222065,MgAg2(PS3)2,-0.712765329329003
mp-1248597,Ca3Si4(AgO7)2,-2.698132041666666
mp-1260237,Mg3Si4(AgO7)2,-2.527609586231883
mp-1263117,Zn3Si4(AgO7)2,-2.164821830362317
mp-555852,Rb2Ag2GeS4,-0.8837679525925921
mp-558151,Ag2PO3F,-1.769361049353741
mp-707138,Ag2PHO4,-1.5734414415699391
mp-17756,RbAg2SbS4,-0.63330489927083
mp-1235223,LiSc2(AgO2)2,-2.478875571851851
mp-1236728,LiSc2(AgO2)2,-2.443740798518518
mp-2217089,MgNi2(AgO2)2,-1.000556790925924
mp-2217118,MgCo2(AgO2)2,-1.00302420537037
mp-2217133,MgMn2(AgO2)2,-1.469311507132823
mp-2217135,MgFe2(AgO2)2,-1.2690374831481481
mp-2217160,MgFe2(AgO2)2,-1.252908432037036
mp-2217426,MgNi2(AgO2)2,-0.9737194742592581
mp-2217467,MgCo2(AgO2)2,-1.085193936481481
mp-2227067,MgMn2(AgO2)2,-1.497320891577267
mp-1229140,Ag2SnBiSe4,-0.267650979218768
mp-1220114,NiAg2Sn3S8,-0.5970052913095161
mp-1221783,MnAg2Sn3S8,-0.49657901555829803
mp-1225099,FeAg2Sn3S8,-0.639291724166665
mp-1226122,CoAg2Sn3S8,-0.606191387738086
mp-1226771,CdAg2Sn3S8,-0.634293034880951
mp-1239209,TaCr3(AgS4)2,-0.9159149336190451
mp-1239264,NbCr3(AgS4)2,-0.8892013659523791
mp-1239190,TaCr3(AgS4)2,-0.9161632618333311
mp-1239199,TaCr3(AgS4)2,-0.9134912839761881
mp-1239252,NbCr3(AgS4)2,-0.897782278095237
mp-1239267,NbCr3(AgS4)2,-0.8919972563095221
mp-1217947,TaNb(AgO3)2,-2.288078928066666
mp-679997,CsAg2(B5O8)3,-2.657623859594964
mp-1102112,V3Ag2TeS6,-0.999176045416667
mp-557396,Ag2INO3,-0.618246061726189
mp-1181229,K3Ag2(PO4)5,-1.658239599443253
mp-1188566,VAg2AsO6,-1.496258252583333
mp-1192667,KAg2SbS3,-0.537853720947412
mp-1198639,K3Ag2(PO4)5,-1.3936052624432531
mp-1220231,NiAg2Sn3S8,-0.37701637345237904
mp-1238826,TaCr3(AgS4)2,-0.7160497364761881
mp-1239265,NbCr3(AgS4)2,-0.7095250877380941
mp-505812,Co3Ag2(P2O7)2,-2.067122284430642
mp-542161,Mn3Ag2(P2O7)2,-2.313328752639036
mp-557644,Ag2P2PbO7,-1.98453012438492
mp-559071,Ag2Bi2S3Cl2,-0.7483002703703701
mp-667579,Ag2P2PbO7,-0.20260931938491902
mp-23592,Ag2Hg7(As2I3)2,-0.283995160701756
mp-1078823,Cs2Zr(AgTe2)2,-0.9844257721455931
mp-555166,BaAg2SnS4,-1.010130186041665
mp-569114,BaAg2SnSe4,-0.96708619846354
mp-569790,BaAg2GeSe4,-0.9486019034635401
mp-1154476,Mg3Si3(AgO6)2,-2.313168367166665
mp-1157153,Ca3Si3(AgO6)2,-2.576056236416666
mp-1324601,Zn3Si3(AgO6)2,-1.8449654696666662
mp-1329814,Mg3Ag2(GeO4)3,-1.842501384666666
mp-1330159,Zn3Ag2(GeO4)3,-1.390625902291666
mp-1365542,Ca3Ag2(GeO4)3,-2.096047876166666
mp-2223650,MgAg2(GeO3)2,-1.558513868030302
mp-2223667,MgAg2(GeO3)2,-1.50095572530303
mp-1239168,TaCr3(AgS4)2,-0.8110678586190451
mp-1239194,TaCr3(AgS4)2,-0.7933043793333311
mp-1239261,NbCr3(AgS4)2,-0.7842907180952371
mp-1246763,NbCr3(AgS4)2,-0.7960188248809511
mp-1214285,BeSi(AgO2)2,-2.062230145416666
mp-1044410,PrMg(AgO3)2,-1.630109635499999
mp-1044462,CaPr(AgO3)2,-1.784264360499999
mp-1044484,PrZn(AgO3)2,-1.361313886499999
mp-10963,Ag2SnHgSe4,-0.47488669315104204
mp-1210646,MnSi(AgSe2)2,-0.54760371382992
mp-1210667,MnSi(AgTe2)2,-0.18747466024783602
mp-1210801,MnAg2SnS4,-0.5008193689457551
mp-1210929,MnAg2SnSe4,-0.52828406320492
mp-1211361,MnAg2GeSe4,-0.491092853204921
mp-1213860,CdGa(AgS2)2,-0.604061903854165
mp-1213864,CdGa(AgSe2)2,-0.5810700394010411
mp-1214926,Ag2SnHgS4,-0.469528931979166
mp-1239171,TaCr3(AgS4)2,-0.8123249711190451
mp-1239232,TaCr3(AgS4)2,-0.7926770293333311
mp-1239249,NbCr3(AgS4)2,-0.7806450780952371
mp-1246997,NbCr3(AgS4)2,-0.8091386623809501
mp-1247008,NbCr3(AgS4)2,-0.7970083573809511
mp-554105,CdAg2GeS4,-0.583503417916664
mp-1197203,CdAg2GeS4,-0.5864483032291641
mp-860963,Ag2H4(SO4)3,-1.449344143492063
mp-556866,Ag2HgSI2,-0.44160478972222206
mp-1220648,Nb3Ag2TeS6,-1.096684265416665
mp-2217636,MgAg2(BiO3)2,-1.223589421666667
mp-2217778,MgAg2(SnO3)2,-1.487111934393939
mp-2219218,MgCr2(AgO4)2,-1.530008158333332
mp-2222788,MgSc2(AgO3)2,-2.277347102575757
mp-2222809,MgSc2(AgO3)2,-2.226914417121212
mp-2223703,MgSc2(AgO3)2,-2.255368241666666
mp-2227594,MgAg2(BiO3)2,-1.291775614393939
mp-1079461,Ag2IOF,-0.285906325666666
mp-1239188,TaCr3(AgS4)2,-0.6842407168333311
mp-1246978,NbCr3(AgS4)2,-0.711014350238094
mp-567177,KNb(AgSe2)2,-0.894238618744791
mp-571288,KTa(AgSe2)2,-0.9020147852864571
mp-861942,Ag2GePbS4,-0.550358512291666
mp-1193238,Ag2Te(H2O3)2,-1.096259264615384
mp-1229130,Ag2Bi2SeS3,-0.25843445743055604
mp-1190916,Ag2Te3Mo3O16,-1.5645405863888882
mp-1224849,Ga2Ag2TeSe3,-0.48101503933594003
mp-1224856,Ga2Ag2SeS3,-0.5955354256249981
mp-1224864,Ga2Ag2Se3S,-0.5550351278125071
mp-1229184,Ag2Hg3P4Br3,-0.34186394578372903
mp-1239253,NbCr3(AgS4)2,-0.8932420973809511
mp-2218940,MgAg2(BrO4)2,-0.595344443717948
mp-2228172,Sr2Mg(AgO2)2,-2.001640352037036
mp-2239883,MgAg2(BrO2)2,-0.5367919853703691
mp-1226773,CdAg2SnS4,-0.5332702472916651
mp-1226777,CdAg2SnSe4,-0.5252123934635411
mp-1239221,TaCr3(AgS4)2,-0.881036745761902
mp-1246915,NbCr3(AgS4)2,-0.840584315952379
mp-2217139,Ba2Mg(AgO2)2,-1.7727507942592582
mp-2222799,MgAg2(BrO2)2,-0.53057086648148
mp-558763,Ag2Hg(SeO3)2,-0.9140723493655301
mp-1199576,U3Ag2(GeO8)2,-2.128331237753621
mp-1199990,Ag2C4I3N,0.8733057161666661
mp-1324481,MgAg2P2O9,-1.856246784115646
mp-1365006,ZnAg2P2O9,-1.6283504769727881
mp-554336,NbAg2(PS4)2,-0.6794727394322341
mp-556345,Ag2BrNO3,-0.6550704147619041
mp-557303,Ag2NClO3,-0.68977540690476
mp-559318,UAg2(WO5)2,-2.174364754888887
mp-570836,K5Ag2(AsSe3)3,-0.846303704377741
mp-623058,Ti2Ag2P2S11,-0.88437805392857
mp-725087,Ag2C4Br3N,1.081002139666666
mp-2224218,Sr2Mg(AgO2)2,-1.518839914259258
mp-1189794,FeSi(AgS2)2,-0.5978341960416661
mp-1189914,ZnSi(AgS2)2,-0.601970757031249
mp-1229141,Ag2HgGeS4,-0.463996551354166
mp-1239198,TaCr3(AgS4)2,-0.68471209040476
mp-1239254,NbCr3(AgS4)2,-0.671084517023808
mp-15144,ZnAg2GeO4,-1.353360922916665
mp-9359,ZnSi(AgO2)2,-1.764212550416665
mp-1188845,K2Ag2GeSe4,-0.838273520245369
mp-1195759,Ag2P2H2O7,-1.815974185778388
mp-558500,K2Ag2GeS4,-0.8864509708703691
mp-1212006,InNiAg2F7,-2.109511752727272
mp-1212687,FeNiAg2F7,-2.03957492621212
mp-1213740,CrNiAg2F7,-2.192959935757575
mp-1235826,LiSc2(AgO2)2,-2.477828555185184
mp-2233106,MgV4Ag2O11,-2.066318881296295
mp-2240152,MgFe2(AgO2)2,-1.271938669814814
mp-2240693,MgFe2(AgO2)2,-1.288045183148147
mp-1215558,ZnAg2GeS4,-0.629615587291665
mp-1223852,InGa(AgS2)2,-0.588790021406248
mp-1223856,InGa(AgTe2)2,-0.357866566249999
mp-1223911,InGa(AgSe2)2,-0.53576407890625
mp-1192998,In2Ag2GeS6,-0.38281125878787603
mp-1222677,LiAg2(NO2)3,-0.7765507230555551
mp-505607,In2Ag2GeSe6,-0.614902007339014
mp-558407,In2Si(AgS3)2,-0.6054926228977341
mp-560386,In2Ag2GeS6,-0.6585591751515131
mp-640614,In2Si(AgSe3)2,-0.673044789157196
mp-1104849,SrAg2(IO2)4,-0.9400402908888881
mp-1179111,SrAg2(IO2)4,-0.950934460222222
mp-1076866,La7SmCo6(AgO10)2,-2.553419606898149
mp-1099871,La7SmNi6(AgO10)2,-2.322039261064814
mp-1215684,Zn3CdGa2(AgS4)2,-0.876243099895832
mp-1228293,Ba4Mn2Ag2As4O17,-2.183985031179151
mp-1233179,Ho2MgAg2(WO4)4,-2.358743831533331
mp-1233349,Ho2MgAg2(WO4)4,-2.357783247533332
mp-1233371,Ho2MgAg2(WO4)4,-2.359663203533332
mp-1233593,Ho2MgAg2(WO4)4,-2.339206570333332
mp-2229414,Rb4MgV2(AgS4)2,-1.150207055196078
mp-2232484,MgV2Ag2(HgO4)2,-1.564582594888889
mp-2240119,KMgAg2SbS4,-0.731129418398146
mp-686742,Ag2H21N7(ClO4)2,-0.23794727636458302
mp-1181173,K4Ag2Sn3S9O2,-0.6459215623666651
mp-1200293,K4Ag2Sn3S9O2,-0.7221385327416651
mp-723002,Ag2H12S(NO)4,-0.7796728774275351
mp-2232221,La2MgTi2(AgO4)2,-2.742104349
mp-2232337,La2MgTi2(AgO4)2,-2.647477937666666
mp-2229472,La2MgTi3(AgO5)2,-2.880713748796296
mp-1234028,Eu2MgAg2(WO4)4,-2.236961159533334
mp-1234725,Ho2MgAg2(WO4)4,-2.337555783933331
mp-1235646,LiHo2Ag2(WO4)4,-2.307253790666666
mp-532680,Ba6CdAg2(SnS4)4,-1.4275910639080451
mp-1235228,LiTaNb(AgO3)2,-2.122484803999999
mp-1235367,LiTaNb(AgO3)2,-2.127776857636362
mp-1078198,Ba2CoAg2(SeO)2,-1.432481649780092
mp-1208725,Sr3Fe2Ag2S2O5,-1.942875126666665
mp-2229350,La2MgTi3(AgO5)2,-2.79612233324074
mp-1199727,Rb2Ag2Sn(PSe3)3,-0.677976867550332
mp-1103452,RbV2Fe(AgO4)2,-1.8369358947023802
mp-1103811,KV2Fe(AgO4)2,-1.835449832541666
mp-19174,BaMnV2(AgO4)2,-2.123178457233168
mp-1210836,MnFe2Ag2(PO4)3,-2.115866138009647
mp-1220973,Na5Fe3Ag2(As2O7)4,-1.725254300331084
mp-541777,SrMnV2(AgO4)2,-2.115032828661741
mp-559335,ZnAg2C4(SN)4,-0.026998848398811
mp-1234531,Eu2MgAg2(WO4)4,-2.260637902733334
mp-2224758,Rb4MgV2(AgS4)2,-1.144237664607842
mp-695951,LiAg2P3(HO5)2,-2.044618744894181
mp-2227975,MgFeAg2SnS4,-0.54197621148148
mp-1235999,LiTaNb(AgO3)2,-2.074128973999999
mp-2232516,La2MgTi2(AgO4)2,-2.911888947
mp-1196868,Ag2H2C2N6O13,-0.541692375333332
mp-567645,Ag2H12C6N3Cl,-0.116943085347222
mp-1076275,La7SmCo6(AgO12)2,-2.334129513833333
mp-1076723,La7SmNi6(AgO12)2,-2.252523785333333
mp-1236593,LiTaNb(AgO3)2,-2.128799292181817
mp-690687,Ag2H2IOF,-1.046624786547618
mp-1229134,Ag2BiSb(TeSe)2,-0.32729042141927
mp-1222056,Mn2FeAg2(PO4)3,-2.175780045906199
mp-1223912,InGaAg2(TeSe)2,-0.43596050914063106
mp-2229181,K4MgNb2(AgS4)2,-1.092022763372548
mp-2229245,K4MgNb2(AgS4)2,-1.117690869843136
mp-2229308,Rb4MgV2(AgS4)2,-1.120848824607842
mp-2229576,Cs4MgNb2(AgS4)2,-1.14078502158553
mp-2229952,K4MgV2(AgS4)2,-1.110204451019607
mp-2239978,KMgAg2SbS4,-0.7497269950648131
mp-2240947,K4MgV2(AgS4)2,-1.1440289192549011
mp-720196,Mn2FeAg2(PO4)3,-1.239283582656197
mp-1204116,SrAg2C4(N2O)2,0.22614022147435803
mp-1235346,LiAg2C2(NO)2,-0.49524691851851904
mp-622268,Ba2ZnAg2(SeO)2,-1.655471332002314
mp-1234092,Ho2MgAg2(WO4)4,-2.293962001533332
mp-1235227,LiTaNb(AgO3)2,-2.100776298545453
mp-2222914,KMgAg2SbS4,-0.7881252050648131
mp-2223317,MgFeAg2SnS4,-0.49739310370370204
mp-2226807,MgV3Ag2TeS6,-0.9999690623076911
mp-1226919,Co3Ag2P3HO12,-1.916816781595804
mp-648573,ZnAg2C4(SN)4,-0.019132475065475
mp-1233042,MgCo6Ag2P6(HO6)4,-1.9040346102602421
mp-1233847,MgCo6Ag2P6(HO6)4,-1.9294616432834981
mp-1234694,MgCo6Ag2P6(HO6)4,-1.916662398167219
mp-1234730,MgCo6Ag2P6(HO6)4,-1.937260977236987
mp-1234777,MgCo6Ag2P6(HO6)4,-1.907767894213731
mp-2232129,BaMgMnV2(AgO4)2,-2.053807189084291
mp-2232382,BaMgMnV2(AgO4)2,-1.993050189750957
mp-2232521,RbMgV2Fe(AgO4)2,-1.798179797722222
mp-1202797,Ag2H12C3S3(BrN3)2,-0.43362197752976106
mp-1194811,UAg2P2H2CO8,-1.966401347351189
mp-1202149,Ag2H6PdS2(NO3)2,-0.9421109829385961
mp-680067,Ag2CSNClO4,-0.246439743583333
mp-1233022,MgCo6Ag2P6(HO6)4,-1.9367003330509411
mp-1221251,Na4NiAg2S8N5O12,-0.48288192543282904
mp-1215002,Ag2H8C2S2N5ClO3,-0.5539089868840591
mp-1201374,Cs2CaAg2H4C6S6(N3O)2,-0.630738347677367
mp-1183202,Ag3As,0.09439199874999801
mp-1183511,CaAg3,-0.16403876624999802
mp-1183647,CdAg3,-0.046257173749996
mp-1183721,CrAg3,0.26801541
mp-1183815,DyAg3,-0.21998942916666303
mp-1184357,EuAg3,-0.14997578250000002
mp-1185836,MgAg3,-0.142501011249999
mp-1186130,NpAg3,0.337991995312499
mp-1187816,YAg3,-0.214797421249997
mp-1187946,ZnAg3,-0.0091386225
mp-862716,LiAg3,-0.128797530416665
mp-973174,NaAg3,0.013203913333335001
mp-976762,NiAg3,0.1849671575
mp-979274,UAg3,0.36722466999999803
mp-980060,TbAg3,-0.218349787916666
mp-981749,TcAg3,0.594415053750001
mp-985295,Ag3P,0.20542232584686101
mp-985296,Ag3Pd,-0.06677629124999701
mp-985299,Ag3N,0.9805402187500001
mp-1605,Ag3O4,-0.40144617142857003
mp-562412,Ag3F8,-1.19802818272727
mp-31172,Ca5Ag3,-0.254754581874998
mp-571212,Yb5Ag3,-0.230674216249997
mp-27819,Ag3O,-0.216563653749997
mp-1222022,MgAg3,-0.039555932499998
mp-1226736,CdAg3,-0.007482706249998
mp-1106092,Sr7Ag3,-0.150554536499998
mp-1219243,SiAg3,0.184854339999997
mp-1223787,InAg3,0.027521498701926002
mp-1224795,GaAg3,-0.0015142762499990002
mp-1229105,Ag3Sb,0.08736486500000101
mp-1229107,Ag3Sn,0.100666425
mp-1229108,Ag3Ge,0.08377575375
mp-1229111,Ag3Bi,0.14664321500000102
mp-1229123,Ag3Pb,0.142147600000001
mp-1183193,Ag3As,0.0883969775
mp-1183206,Ag3Pd,-0.06175013499999601
mp-1183225,Ag3Rh,0.22273823249999902
mp-1183244,Ag3F,-0.409791580416666
mp-1183249,Ag3Se,-0.029397497057289
mp-1183250,Ag3Hg,0.021212263125001
mp-1183254,Ag3S,0.061218283880212006
mp-1183261,Ag3Ru,0.5244341787499991
mp-1183265,Ag3Cl,-0.02073470645833
mp-1183272,Ag3Br,-0.042939627499998
mp-1184036,GaAg3,0.018001280000003003
mp-1184172,ErAg3,-0.21568256499999902
mp-1184294,FeAg3,0.346758665000001
mp-1184392,EuAg3,-0.176122236250002
mp-1184474,GdAg3,1.056183848333333
mp-1185342,LiAg3,-0.12053857916666601
mp-1186159,NpAg3,0.330654430312499
mp-1186294,NdAg3,-0.19588243187499801
mp-1186539,PmAg3,-0.20413268437499701
mp-1187005,SiAg3,0.192992066249999
mp-1187413,ThAg3,-0.047415933749997
mp-1187952,ZnAg3,-0.015775039999997
mp-1188064,YbAg3,-0.22395063874999702
mp-862709,CeAg3,-0.069312751249998
mp-864934,MgAg3,-0.146502536249998
mp-865910,CdAg3,-0.043018734999996006
mp-865950,AcAg3,-0.200376441875
mp-972557,SmAg3,-0.20321334124999801
mp-974525,ReAg3,0.8944323137499981
mp-981748,TbAg3,-0.20898556916666503
mp-1183627,CdAg3,-0.038884366249998005
mp-1183967,GaAg3,0.027583971250003003
mp-1185300,LiAg3,-0.120044930416664
mp-1186100,NaAg3,0.020170683333336003