material_id,formula,formation_energy_per_atom
mp-1227010,Ce2AlGaNi2,-0.5919274706944431
mp-1247671,Ca2MnAlO5,-2.928346916992336
mp-1247677,Ca4Mn3AlO10,-2.763395958821839
mp-567838,La2AlNi9H,-0.359564733173077
mp-1204402,LiAl(CN2)2,-0.7149645185416671
mp-1205240,AlB3(H5N)6,-0.35734051168750003
mp-558137,AlBPbO4,-2.720201696845237
mp-559987,LiAl(PO3)4,-2.800282252883598
mp-568001,AlHg2SbCl4,-1.074482824531251
mp-24045,AlP(H2O3)2,-2.176517903303571
mp-542678,AlAs(H2O3)2,-1.855451977604166
mp-759356,AlH3NCl3,-1.3333661928125
mp-1178049,Li2AlCoO4,-2.336691109270833
mp-1183019,AlH15Br3N5,-0.053597155885417004
mp-1192378,AlTlSiO4,-2.900092249047619
mp-1199829,AlH15Br3N5,-0.75022231078125
mp-1203164,AlCoNF6,-2.003367683055555
mp-1209335,RbAlAgF6,-2.896297992962962
mp-1209376,RbAlCuF6,-3.039467765
mp-1210454,NaAl(SO4)2,-2.277732479489942
mp-1213699,CsAlZnF6,-3.32442471190613
mp-1214930,Ba5AlRu2O11,-2.635391082894735
mp-1227552,Ca2AlFeO5,-2.904706467222223
mp-1228674,Ba2AlZnF9,-3.742510765576923
mp-17033,CsAlPdF6,-2.875400613981485
mp-18124,KAlCuF6,-3.033430691916666
mp-18453,RbAlPdF6,-2.896145690555555
mp-20014,AlVMoO7,-2.4600990815
mp-21742,Ba5AlIr2O11,-2.553505045263157
mp-510370,CsAlCuF6,-3.042744035239463
mp-555048,NaAlCdF6,-3.236002949597701
mp-558270,AlS5N5Cl4,-0.30322734435416804
mp-559276,AlBPbO4,-2.718047085595238
mp-559963,AlS2NCl4,-0.8490515358984381
mp-561457,CsAlSiO4,-3.186350407807882
mp-561999,CsAlAgF6,-2.909561039591315
mp-669421,AlTlSiO4,-2.519825879761905
mp-699469,AlH15N5Cl3,-0.81161657078125
mp-707218,Ba3AlHO4,-2.760497843194445
mp-740718,AlH6N2Cl3,-1.081891948854167
mp-756369,LiAlVO4,-2.791766212261906
mp-770386,LiMnAlO4,-2.538269037680624
mp-770517,Li9Al(NiO4)2,-2.01564538625
mp-770545,LiAlCrO4,-2.593993404761904
mp-770550,Li2AlCoO4,-2.327874575520833
mp-770629,Li2AlFeO4,-2.4871787420833322
mp-770680,Li9Mn2AlO8,-2.196633055418103
mp-770714,LiAlFeO4,-2.088526139047619
mp-770726,Li9Al(CoO4)2,-2.0701116495
mp-8376,MgAlBO4,-3.175152658452381
mp-1105758,AlTl2OF5,-2.4088484140740762
mp-1182863,AlTl2OF5,-2.46234092851852
mp-1182891,AlCNO5,-1.498028069374999
mp-1189074,Rb2AlOF5,-2.874313272222222
mp-1189152,AlCNO5,-0.7463356693750001
mp-1211756,KAlCO5,-2.00005423840625
mp-731701,K2AlOF5,-2.877748093277777
mp-9719,Na2LiAlP2,-0.6294795821462771
mp-1191246,La2Al(Ni3H4)3,-0.166766539791666
mp-1222363,LiLa4AlO8,-3.593712637380953
mp-1226666,CeAl(CuNi)2,-0.36131950499999904
mp-556532,CaAlB3O7,-3.132661587708333
mp-1202325,LiAl(Si2O5)2,-3.242258592395833
mp-1220855,NaAlSi3O8,-3.208499219336869
mp-1228800,AlH12(OF)5,-1.840902737391304
mp-1229110,AlBi3Sb2O11,-2.050862982647059
mp-1578402,MnAl(WO4)2,-2.391675183994253
mp-556544,LiAlSiO4,-3.18810415297619
mp-754923,Li2AlVO4,-2.706253900208334
mp-756579,Li2AlCoO4,-2.341825677708334
mp-756603,Li2AlNiO4,-2.213436601458333
mp-772267,Li2AlFeO4,-2.496377974583333
mp-1195284,KAl(BH4)4,-0.315427383814393
mp-6450,K2LiAlP2,-0.633230926186506
mp-9068,K2NaAlP2,-0.69576564390873
mp-9069,K2NaAlAs2,-0.554715968479885
mp-1189078,NaAlCO5,-1.9637196701724131
mp-1189240,MgAlO2F5,-2.458742468888888
mp-1214829,AlNiAg2F7,-2.4922114857575752
mp-1219581,RbMgAlF6,-3.724744384722222
mp-1219582,RbAlNiF6,-3.222020559166671
mp-1222041,MgAlFeO4,-2.700239240714285
mp-1222157,MgAlNF6,-2.692343139444444
mp-1222338,LiTiAlO4,-3.227161415952381
mp-1223554,KAlNiF6,-3.205277229694444
mp-1225922,CsMgAlF6,-3.734724373850574
mp-1225930,CsAlNiF6,-3.207855726111111
mp-1225941,CsAlCuF6,-3.040447778850575
mp-1228837,AlZnCrS4,-1.177997197857142
mp-1228961,AlCuSnS4,-0.910110392142856
mp-1229097,AlCrFeO4,-2.542837820714286
mp-1229178,AlCoNF6,-2.074714915
mp-1246431,MgAlVS4,-1.353581971428571
mp-1246445,MgMnAlS4,-1.243838181133004
mp-1247044,MgAlMoS4,-1.173355821428571
mp-1247113,MgAlCrS4,-1.323263207142856
mp-1247528,MgTiAlS4,-1.508907767619047
mp-554507,Na2AlNiF7,-3.093076317727273
mp-559982,Na2AlZnF7,-3.227245769204545
mp-6319,Na2MgAlF7,-3.573647912978056
mp-753631,LiAlVO4,-2.809097857976191
mp-1220885,NaTi3AlO8,-3.3258188501061
mp-1223534,KAlSi3O8,-3.055913085942308
mp-1228598,Ba2ScAlO5,-3.3716624259259262
mp-1235552,SrLiAlO3,-2.943875554722222
mp-1228824,AlZnGaS4,-1.028982239107138
mp-1228907,AlGa(CuS2)2,-0.8295413326562511
mp-1228926,AlIn(AgSe2)2,-0.6360703095312481
mp-1228935,AlIn(AgS2)2,-0.7298142995312501
mp-1228950,AlGa(CuSe2)2,-0.6638856482812491
mp-1228963,AlAgSnSe4,-0.769702025148809
mp-1228980,AlCuGeSe4,-0.7430883706249991
mp-1229027,AlCuSnSe4,-0.772785169196429
mp-1229046,AlIn(CuSe2)2,-0.6510536007812491
mp-1229077,AlIn(CuS2)2,-0.7876838114062531
mp-1235027,LiAlAsO4,-2.237526955833333
mp-1236207,LiAlAsO4,-2.231110167261904
mp-561350,AlBiSCl4,-1.580356138571429
mp-628665,AlBiTeCl4,-1.536814738809524
mp-637206,AlBiSeCl4,-1.581969395691965
mp-1193778,RbAl(H2N)4,-0.599466153750009
mp-1210712,Rb2Al(H2N)2,-0.089245734166667
mp-1237686,Rb2Al(H2N)2,0.335975584166665
mp-1251539,RbAl(H2N)4,-0.597844658749999
mp-24515,RbAl(H2N)4,0.130685280892846
mp-634446,CsAl(H2N)4,-0.588670965714285
mp-762197,RbAl(H2N)4,-0.532095090892857
mp-554433,KAl(SiO3)2,-3.220683370725
mp-770491,Li3AlNiO4,-2.247820456388888
mp-770591,Li3MnAlO4,-2.457687406714559
mp-771900,Li3AlCoO4,-2.272821155555556
mp-772439,Li3AlFeO4,-2.394250630972222
mp-1046382,Sr2AlCu3O7,-2.040206100384615
mp-1046989,Ca2AlMoO5,-2.951052065
mp-1222440,Mg3Al(SiO4)3,-2.8415239342105263
mp-1226440,CsAlSi5O12,-3.241749217876588
mp-1227101,CaTaAlO5,-3.482968807791668
mp-1227412,BeAlSiN3,-1.426333574166667
mp-1251079,Ca2AlBiO5,-2.777608289444445
mp-1253097,Ca2AlSbO5,-2.818395305555555
mp-1258227,Ca2AlAgO5,-2.50547175962963
mp-1211141,Na5Al(HO)8,-1.7132036288362071
mp-770387,LiMnAlO4,-2.510589606609196
mp-770414,LiAlVO4,-2.8015189411904773
mp-772390,LiAlFeO4,-2.272178853333333
mp-1197684,Na5Al(HO)8,-1.71542255497257
mp-1042186,BaAlCu2O5,-1.796899098333333
mp-1221640,MnAlCuPd,-0.300006989482758
mp-1045091,Sr2AlGaW2O7,-2.162244687884614
mp-1045980,AlW3Se2ClO8,-1.705881104645834
mp-1046370,Sr2AlCu2AgO7,-1.957418767051281
mp-1046381,Ba2AlTlCo2O7,-2.075564499102566
mp-1046452,Sr2AlCu2SnO7,-2.227023638076922
mp-1046566,Sr2AlCr2GaO7,-2.588966092115384
mp-1046620,Sr2TaAlCu2O7,-2.450535957102563
mp-1046779,Sr2AlGaCo2O7,-2.376502869423078
mp-1046781,Sr2AlGaW2O7,-2.106512753653845
mp-1048033,Sr2AlGaSn2O7,-2.354686673653845
mp-1048054,Sr2Ti2AlGaO7,-2.8197578826282053
mp-1048499,AlSn3Se2ClO8,-1.7131530123125
mp-1048587,Ti3AlSe2ClO8,-2.2786275463125
mp-1100918,Y2AlSiNO5,-2.7387109890000003
mp-1173412,Pr4AlSi5(NO)7,-2.475858200277779
mp-1173490,Sm4AlSi5(NO)7,-1.941556358333335
mp-1191292,LiAlSi2HO7,-2.7555376403819443
mp-1218436,SrAlSi5N7O2,-1.780333462812501
mp-1221260,Na4AlCr3(P2O7)4,-2.711444037105911
mp-1222638,LiMg4Al(MoO4)6,-2.394198303148149
mp-1223539,KMg3Al(SiO4)3,-2.958337485112499
mp-1226105,CsAlFe3(SiO4)3,-2.659040877482758
mp-1227802,Ca2AlPbOF8,-3.528846224999999
mp-1227994,BaAlSi5N7O2,-1.8045234571875
mp-1228596,AlH12C4NF4,-1.005940588636363
mp-1229214,AlCoP2NO8,-1.982441474368132
mp-1249065,Nd4AlSi5(NO)7,-2.037310619583334
mp-1249890,LiAlSi2H2O7,-2.238283154679486
mp-1252241,Sr2AlTlCo2O7,-2.052906607564103
mp-1256846,Ba2AlTlFe2O7,-2.104918593717948
mp-1262187,Nd8AlSi3(NO5)3,-2.664040511333332
mp-1266944,AlMo3Se2ClO8,-1.436079465645833
mp-1268088,BaAlCuAgO5,-1.800179218518518
mp-1340471,AlMo3Se2ClO8,-1.409359323979167
mp-1369848,Sr2AlCu2SnO7,-1.430539397692307
mp-2219107,MgAlAg(WO4)2,-2.183546621282051
mp-2219878,MgAlCu(WO4)2,-2.221953959615384
mp-2220125,MgAlAg(WO4)2,-2.226133835128204
mp-2228209,MgAlTe(WO4)2,-2.188726798589743
mp-2233446,MgAlCu(WO4)2,-2.271926831923076
mp-2241036,MgAlCu(WO4)2,-2.110836044999999
mp-24104,LiAlSi2H2O7,-2.77117283852564
mp-2713429,Na10Nb7Al(SiO4)12,-2.986005415988801
mp-2713440,Na10Ta7Al(SiO4)12,-3.104416384638373
mp-2713733,Nb3AlSi3(SO8)3,-2.653759209093138
mp-2713779,Ta3AlSi3(SO8)3,-2.754475627191176
mp-2714683,Na3AlGe3(PO4)6,-2.577087005684552
mp-2714696,Na3AlSn3(PO4)6,-2.614618481990858
mp-2714793,Na3Ti3Al(PO4)6,-2.978340331585453
mp-2714868,Na3Hf3Al(PO4)6,-3.1360046484323
mp-2714987,Na3Ca3Al(SO4)6,-2.417674514030755
mp-2715017,Na3AlZn3(SO4)6,-2.048688363670395
mp-2715023,Na3Mg3Al(SO4)6,-2.331932017769494
mp-2715254,Na3YAl(PO4)3,-2.960663290153325
mp-2715286,Na6Nb3Al(SiO4)6,-2.9623523492902297
mp-2715298,Na3LaAl(PO4)3,-2.939878183319993
mp-2715329,Na6Ta3Al(SiO4)6,-3.056766863131896
mp-2715331,Na3AlGa(PO4)3,-2.718025436611659
mp-2715371,Na3LaAl(PO4)3,-2.929143104653325
mp-2715384,Na3ScAl(PO4)3,-2.959912403653326
mp-2715416,Na3AlIn(PO4)3,-2.690644939736659
mp-2715422,Na3ScAl(PO4)3,-2.963150448903325
mp-2715437,Na6Ta3Al(SiO4)6,-3.05950948859023
mp-2715466,Na3AlIn(PO4)3,-2.690187449361658
mp-2715482,Na3YAl(PO4)3,-2.958209718778325
mp-2715504,Na3AlGa(PO4)3,-2.714557801778325
mp-2715520,Na6Nb3Al(SiO4)6,-2.960574597581897
mp-2716513,Na3Zr3Al(PO4)6,-3.073264505999868
mp-532554,AlCu2Sb(HO)12,-1.402724558988095
mp-674897,SrNd3AlCuO8,-3.082470131249999
mp-677248,Ca2AlH10IO8,-1.883164274431817
mp-677348,Nd8AlSi3(NO5)3,-2.6364850368333332
mp-677499,Na5Ti7Al(PO4)12,-3.000955081588276
mp-677529,Sr2La18AlSi11O52,-3.726181933214287
mp-677612,Nd4AlSi5(NO)7,-2.028530710972223
mp-681911,Sm4AlSi5(NO)7,-1.916748084166667
mp-684746,LiAlSi2H2O7,-2.191447322756409
mp-686280,Nd4AlSi5(NO)7,-1.8837816431944452
mp-686729,Na7AlSn11(PO4)18,-2.556444295121345
mp-695082,Mg11AlFeSi11O36,-2.9694714162499993
mp-698018,LiAlSi2H2O7,-2.686552454679487
mp-730082,Na5Ti7Al(PO4)12,0.358285257863778
mp-775170,Li2AlCr2SbO8,-2.4990120964285722
mp-1238368,AlFe4Hg2O2F,-0.22447330450000103
mp-1196119,AlPH9(CCl)3,-0.652142632111344
mp-767214,Li2AlPCO7,-2.654816158859127
mp-767417,K2AlPCO7,-2.586816962011905
mp-768146,Na2AlPCO7,-2.604075094783455
mp-1173815,NaCaAlSi2O7,-3.124178642406608
mp-686526,NaCaAlSi2O7,-3.033305448448275
mp-1192520,CaAlCuSi2O9,-2.5429408846428583
mp-1211751,KAlCr2(HO4)2,-1.422755177124999
mp-707530,Na3AlP2H2O9,-2.541043597407274
mp-1209431,Rb3Li2Al(MoO4)4,-2.2951597613141033
mp-1213966,Cs3Li2Al(MoO4)4,-2.311197851178162
mp-1045984,Sr2Mn2AlTlO7,-2.228021266476569
mp-1045986,Sr2AlTlFe2O7,-2.076592482948718
mp-1045998,Sr2AlTlCo2O7,-1.9193379152564112
mp-1046001,Ba2AlTlCu2O7,-1.87232523448718
mp-1046027,Ba2AlTlSn2O7,-1.938131338333332
mp-1046035,Sr2AlTlV2O7,-2.305202554487181
mp-1046349,Ba2AlTlFe2O7,-1.946373951410256
mp-1046389,Ba2AlTlW2O7,-1.788439666794872
mp-1048433,Ba2AlTlNi2O7,-1.805821639102564
mp-1048438,Ba2AlTlCr2O7,-2.232931499871795
mp-1048457,Ba2Mn2AlTlO7,-2.171155513399646
mp-643248,Na2AlH4ClO4,-1.956132986479885
mp-1200764,AlH8N2O2F5,-1.634541797499999
mp-1020714,Y4AlSiNO8,-3.532447881166666
mp-1194729,RbAlCu(PO4)2,-2.616661427445054
mp-1198123,AlH7C2SCl4,-0.820527590833333
mp-1199345,NaAlH12(SO7)2,-1.703030859462643
mp-1199631,NaCaAlOF6,-3.37660757438793
mp-1201938,AlH21C3(SO5)3,-1.234859955552325
mp-1203689,RbAlV(PO5)2,-2.578451161952379
mp-1204336,KAlBP2O9,-2.7654341954073143
mp-1204757,CsAlV(PO5)2,-2.584115604762726
mp-1205009,AlB6H6(CCl3)2,-0.751517804166666
mp-1208739,SrAlHOF4,-2.81302839296875
mp-1214467,BaAlPO5F,-3.123066507460318
mp-1215134,AlP2H12N3O8,-1.570127874107143
mp-1221830,MnAlB2(PbO4)2,-2.46693785866174
mp-1229147,AlFeB2(PbO4)2,-2.398452381309523
mp-1247815,AlP2H4O8F,-2.339717536361606
mp-39167,CaScAlSiO6,-3.5854160185
mp-555467,Sr2AlCO3F5,-3.505704666458333
mp-556195,Na2AlB(As2O7)2,-2.108265367587513
mp-556831,AlSeS2N2Cl5,-0.5346470145823751
mp-569751,AlPH8(CCl2)2,-0.789295251462053
mp-581862,Cs2NaAl(PO4)2,-2.829497928480383
mp-603609,AlH20Ru(Cl3O5)2,-1.358770485657895
mp-727116,AlP3C3NO9,-1.54586868552521
mp-734394,KAlP2H4O9,-2.347075085678572
mp-759686,BeAlSiHO5,-2.949310692638889
mp-1247751,BeAlBO3F2,-3.164293077395832
mp-1247906,AlZn2Sb(HO)12,-0.6362747161309531
mp-1214888,AlZn2Sb(HO)12,-1.6127394830357131
mp-555488,Na5AlP2(O4F)2,-2.845706435528643
mp-1266086,CsAlH24(SO10)2,-0.7775777357740661
mp-1019774,K2CeAl(SiO3)4,-3.260349144725
mp-1191186,CsAlH4(OF2)2,-2.462488051637931
mp-1194655,AlB2H18C4N,-0.178987686282051
mp-1195235,BaAlB4H3O10,-2.67428859870614
mp-1200535,AlB2P2H7O13,-2.010279687854762
mp-1200931,AlBi2Te2BrCl4,-1.304760709333334
mp-1202994,AlSiH11C3O,-0.466235076397059
mp-1204489,AlSb2Te2BrCl4,-1.236893261083333
mp-1210245,NaAlCr2(HO4)2,-1.372647509205665
mp-1227522,Ca6AlCr3(SiO4)6,-3.253593167750001
mp-1227703,Ca6Mn3Al(SiO6)4,-2.6899540693103443
mp-1250606,Ca2AlH10ClO8,-1.478754623068181
mp-14395,NaAlAsO4F,-2.606811734234914
mp-42175,Ca2AlH10ClO8,-1.934489365340908
mp-676991,NaAlSi2H2O7,-2.713585609817639
mp-6873,CaAlSiO4F,-3.54634152625
mp-695927,Ca2AlH10ClO8,-1.435335518068181
mp-698350,Na3AlH10C6O17,-1.660342808219944
mp-8678,NaAlPO4F,-3.083286763252771
mp-2219284,MgAlTl(MoO4)2,-1.960620239102565
mp-2233846,CsMgAl(MoO4)2,-2.057401266511938
mp-2234041,CsMgAl(MoO4)2,-2.124465257281167
mp-2241198,MgAlTl(MoO4)2,-1.9725073329487182
mp-2241357,KMgAl(MoO4)2,-2.116989434788462
mp-1215129,AlCu6SClO19,-0.38930419312500003
mp-1222061,MgAlCr3FeO8,-2.507011203214285
mp-2713177,NaNbAl(PO4)3,-2.9166183972393283
mp-2713437,NaTaAl(PO4)3,-2.986864669591179
mp-2714044,NaCaAl(SO4)3,-2.349221695493296
mp-2714062,NaAlZn(SO4)3,-2.133258146789591
mp-2714149,NaMgAl(SO4)3,-2.333801029196999
mp-2715013,Na4AlZn(PO4)3,-2.642901568783134
mp-2715031,Na4MgAl(PO4)3,-2.79993940465615
mp-2715214,Na4CaAl(PO4)3,-2.8009306498148803
mp-2716346,Na4TaAl(SiO4)3,-2.976066660215107
mp-2716384,Na4NbAl(SiO4)3,-2.91562779891352
mp-1199564,Li2AlB5(H19N3)2,-0.36155390769231005
mp-1191931,Na3CaMg3AlF14,-3.684409502233542
mp-1199312,RbAlP2(HO4)2,-2.57748812840136
mp-1195591,LiAlH34(C3N)4,-0.150807755496795
mp-10510,BaAlBO3F2,-3.542324607395833
mp-556258,Na3BeAl(SiO4)2,-2.976630451942528
mp-1197768,Ba2LiAl(CN2)4,-0.870211854114583
mp-1248468,NaCaAlSi2O7,-3.130876276156608
mp-1249529,Y2BeAlBO7,-3.330076911597221
mp-24402,CaAlSiHO5,-3.085990001805555
mp-686689,Y2BeAlBO7,-3.261103549513889
mp-686735,NaCaAlSi2O7,-3.075958547614942
mp-558491,BaAlBO3F2,-3.5424739598958332
mp-1224126,K2AlSn(PO4)3,-2.74411425149624
mp-677733,K2TiAl(PO4)3,-2.985116810619047
mp-6860,Na3AlP3NO9,-2.624547281945088
mp-1045114,AlV3Se2ClO8,-1.826996957979167
mp-1045601,AlFe3Se2ClO8,-1.586237281645832
mp-1190020,AlBi2Se2BrCl4,-1.36788832746875
mp-1193266,AlH8C3NCl2,-0.5724028950000001
mp-1194400,Ca2AlH2OF7,-3.4212099871153843
mp-1195722,AlH2Pb3OF9,-2.70977708078125
mp-1197821,AlH14SeNO14,-1.384960265156249
mp-1199353,Ca2AlCuAs3O19,-1.247711020480768
mp-1201081,AlCrMo6(H19O20)2,-1.542792952180233
mp-1222672,LiMgAl(MoO4)3,-2.3801071537962972
mp-1223985,K2AlMo3(P2O7)4,-2.639094745991497
mp-1224806,K5AlCr4(MoO4)10,-2.188899904604166
mp-1227507,Ca2AlH10BrO8,-1.914029028522727
mp-1227877,Ca4Mn5Al(Si3O14)2,-2.728314966583072
mp-1228395,Ba6Sm3Al(Cu2O5)4,-2.293286507236843
mp-1229294,AlZnH10O7F5,-1.748158874062499
mp-1264957,AlCo3Se2ClO8,-1.466250656979166
mp-1361141,K2AlMo3(P2O7)4,2.102669745198979
mp-41795,LiAlPO4F,-3.125710195372024
mp-542563,NaMg3Al(MoO4)5,-2.378230769045977
mp-560164,Li3AlMo2(AsO7)2,-2.17892747340909
mp-567609,AlSn2P(H3C)8,-0.131714637721561
mp-568107,AlGe2P(H3C)8,-0.158570291517857
mp-643387,AlH2PbO2F3,-2.551256586388889
mp-644409,LiAlPHO5,-2.735646848802909
mp-695316,Ca2AlH10BrO8,-1.915285999886364
mp-706617,Na2AlSi3HO9,-2.9352379393130392
mp-722684,KAlP4(H2O7)2,-2.442506395867559
mp-758995,MnAlP2(HO)15,-1.7768603375284342
mp-800838,MnAlP2(HO)15,-0.405982007087257
mp-1200079,AlB5H16(NO7)2,-1.7590828648903511
mp-1198095,CsAlH24(SO10)2,-1.54895767457615
mp-24046,NaAlH24(SO10)2,-1.5429054875808181
mp-24135,AlH18Ru(NF)6,-1.188045069296874
mp-24523,CsAlH24(SeO10)2,-1.419937732642516
mp-24554,AlH18C3(N3F2)3,-1.073924155101351
mp-720464,CsAlH24(SO10)2,-0.7593286290553161
mp-723378,KAlH6(OF3)2,-2.337382004046875
mp-1227902,Ca3AlFe(SiO4)3,-3.22723622525
mp-1222721,LaTiAlPbO6,-3.184289496833332
mp-1518979,KLaAlBiO6,-2.470824054225001
mp-1520853,SrEuAlBiO6,-2.6386764195
mp-1521352,KEuAlBiO6,-2.256885840225
mp-1522018,KPrAlBiO6,-2.414907063891667
mp-1523034,CaEuAlBiO6,-2.593253121499999
mp-1189460,NaAlH8(NF3)2,-1.9008891989655181
mp-1042520,BaAlVCuO5,-2.206785785
mp-1044976,BaAlCuWO5,-1.946002060555555
mp-1048241,AlSb3Se2ClO8,-1.384041356979165
mp-1266279,Ba2AlTlCo2O7,-2.023826422948718
mp-1173524,Nd3AlSi5N10O,-1.615270088375
mp-1204399,LiAlSiH2O5,-2.602810342083333
mp-1205443,LiAlSiH2O5,-2.606806825833334
mp-1255402,LiAlSiH2O5,-2.532609990333334
mp-1267031,LiAlSiH2O5,-2.529153446083333
mp-555706,LiAlSiH2O5,-1.9959032685833331
mp-604420,LiAlSiH2O5,-2.5230575618333333
mp-604430,LiAlSiH2O5,-2.487717596833333
mp-655048,LiAlSiH2O5,-2.500310793833334
mp-655057,LiAlSiH2O5,-2.200407186583334
mp-697020,LiAlSiH2O5,-2.618136637333333
mp-1221098,NaCaAlSi2O7,-3.255622690114941
mp-1019537,BaAlSi4N5O3,-2.068949156071428
mp-1229224,AlB2Pb6(OF)7,-2.521819902318839
mp-1046011,Ba2Ti2AlTlO7,-2.6573770380769233
mp-1218168,SrNd3AlCuO8,-3.171945591607142
mp-1218241,SrLa3MgAlO8,-3.568084551428572
mp-1216100,Y2BeAlBO7,-3.539448107847221
mp-1221104,NaCaAlSi2O7,-3.259336173031608
mp-1221476,Na2AlCr(P2O7)2,-2.7742889586968182
mp-1228904,AlPH8(CCl)3,-0.545364173102679
mp-1229072,AlGaCu2(AsO5)2,-1.8651306601562498
mp-1250779,AlSn3Se2ClO8,-1.721379230645833
mp-699146,Mg3AlFe(SiO4)3,-2.8827627802499993
mp-677078,Ca11AlSi3ClO18,-3.383825799117646
mp-1042971,Sr2AlCoCu2O7,-2.136005411923077
mp-1043524,Sr2AlCu2NiO7,-2.040384213076923
mp-1046696,Sr2YAlCr2O7,-2.984573137692308
mp-1046808,Sr2YAlNi2O7,-2.720825925769231
mp-1046811,Sr2YAlW2O7,-2.5058683207692303
mp-1046824,Sr2YAlCo2O7,-2.661657289615384
mp-1046905,Sr2YMn2AlO7,-2.959469016604773
mp-1047019,Sr2YAlFe2O7,-2.827538141538461
mp-1047100,Sr2YAlV2O7,-2.924611137307693
mp-1048068,Sr2YTi2AlO7,-3.243584902435896
mp-1048081,Sr2YAlSn2O7,-2.702756817307691
mp-1249417,Sr2TiAlCu2O7,-2.5776881864102563
mp-1262567,Sr2MnAlCu2O7,-2.250720403302387
mp-1267964,Sr2AlFeCu2O7,-2.202295924230768
mp-643741,Sr2YAlCu2O7,-2.694308379615385
mp-699136,NaAlH2CO5,-2.179932471887932
mp-1518895,EuAlInWO6,-1.096334430666667
mp-1042742,Sr2AlFeCu2O7,-2.202765583461537
mp-1046341,Sr2AlCu2SbO7,-2.223111456153845
mp-1173784,Na9Mg9Al(Si2O7)5,-2.976379852381466
mp-1221399,Na2AlFe(SiO3)4,-2.942303036637931
mp-1227097,CaScAlSiO6,-3.583453498000001
mp-1228994,AlGa2Bi(BO3)4,-2.626392900583334
mp-1229038,AlGaCu2(SeS)2,-0.736743179843749
mp-1252807,Sr2AlGaCo2O7,-2.377278590961539
mp-686601,Na3MgAlSi7O18,-3.076140813971264
mp-686726,LaTiAlPbO6,-3.191545713833334
mp-1019720,CsZr2Al(PO4)4,-3.1694588952386082
mp-1196941,AlTeH6C2Cl3,-0.6850024976282051
mp-1200831,AlH6C2SeCl3,-0.7563969553725961
mp-1205099,AlTeH6C2Br3,-0.5531899272435891
mp-1208690,SrLaAlCuO5,-2.965721002500001
mp-741045,Na4AlP2HO9,-2.625367002782527
mp-1045571,AlNi3Se2ClO8,-1.438663141312499
mp-1048242,AlBi3Se2ClO8,-1.4507722736458342
mp-1046436,Ba2AlTlV2O7,-2.387656032948719
mp-1265780,Ba2AlTlV2O7,-2.425441646025641
mp-1203080,K2AlSO4F3,-2.87943363904546
mp-24618,AlH10N2OF5,-1.7013873402631572
mp-730446,AlH10SO9F,-1.7268228541477262
mp-1197086,AlP2H18(C2Cl)3,-0.45534616205952405
mp-1197837,AlH18C6N2Cl3,-0.44957301241666603
mp-1214981,AlP2CN3O10,-0.698300849516806
mp-556310,LiAlS3(Cl2O3)2,-1.764510131555555
mp-24608,K2AlH2OF5,-2.897516300181818
mp-644285,KAlH2CO5,-2.196757940475
mp-1020163,Na3Li2Al(SiO4)2,-2.8242175870815363
mp-1211169,MnAlPH4O7,-2.053350340183849
mp-1218862,Sr2CaAlO4F,-3.446018824444444
mp-695285,SrAlSi5N7O2,-0.779087258125001
mp-706268,BaAlSi5N7O2,-1.0741057928125
mp-1193110,AlZnH4O2F5,-2.268357516153846
mp-23768,AlZnH4O2F5,-2.378578509615384
mp-24142,MgAlH4O2F5,-2.652837036923077
mp-644506,NaAlH2CO5,-2.180591954887931
mp-1043752,Sr2AlCrCu2O7,-2.260464093076923
mp-1043885,Sr2AlCu2MoO7,-2.147975878846153
mp-1046771,Sr2AlV2GaO7,-2.580949076346154
mp-1178743,Y4AlSi2(O2F)5,-3.60291097159091
mp-1222901,Li2AlCr2SbO8,-2.501683679047619
mp-1249385,Ba2Ti2AlTlO7,-2.739371498076923
mp-1252036,Sr2YAlV2O7,-2.9599165561538463
mp-1266326,BaAlCuSbO5,-1.889367541666667
mp-698470,LiAlH16(CN)4,-0.334926878205128
mp-1229188,AlC2Br5(NO3)2,0.44229832343750003
mp-1042903,Sr2MnAlCu2O7,-2.250044874456233
mp-1046495,Sr2AlCu2BiO7,-2.185714136923076