material_id,formula,formation_energy_per_atom
mp-1180173,NaAgSO5,-0.9427859988182461
mp-1191609,V2FeAgO7,-1.9256541969696972
mp-1193494,MnAgPO4,-2.118772164177222
mp-1193499,AgPd(IO3)3,-0.736862955833334
mp-1205031,Na5Ag(TeO14)2,-0.41658483755268105
mp-1208127,Zn2AgP3O19,-1.096286568023809
mp-1238863,TiCrAgS4,-0.9162648064285701
mp-1238874,TiCrAgS4,-0.9886292678571421
mp-1239244,HfCrAgS4,-1.00325726345238
mp-1247517,ZrCrAgS4,-0.9894147745238081
mp-19467,AgMo3P3O16,-2.204619052199791
mp-505353,CoAgPO4,-1.866099493044218
mp-510710,Cs2AgSbS4,-0.897385242622125
mp-554763,NpAgSeO5,-2.040924001282552
mp-556434,AgBi(PS3)2,-0.33882521078273803
mp-560130,Fe2Ag(MoO4)3,-1.761549528703704
mp-561205,AgC4OF9,-1.638952751111111
mp-561400,NaZr2AgF11,-3.379161184536398
mp-561622,Cs2AgAsS4,-0.879610696059625
mp-660167,NaZr2AgF11,-2.192192816536398
mp-985575,LiAg(CO2)2,-1.4973451150000001
mp-985610,NaAg(CO2)2,-1.4697001097557472
mp-985701,AgAs3H2O9,-1.4163172241111122
mp-10413,AgB(CN)4,0.15412488770833302
mp-1221573,MnInAgPd,-0.12988970406609102
mp-1226280,Cr4CdAgSe8,-0.763073599315475
mp-1226293,Cr4InAgS8,-0.93617870845238
mp-1226322,Cr4InAgSe8,-0.7825749697916661
mp-1235058,LiAgClO4,-0.292975779285714
mp-1235767,LiAgClO4,-0.47581819642857104
mp-554048,NaAg(NO2)2,-0.866014892255746
mp-1078250,Cs2AgBiBr6,-1.456030710097701
mp-1078258,Cs2AgBiCl6,-1.510083130500001
mp-1096926,Cs2InAgCl6,-1.739095379764367
mp-1110597,Rb2VAgF6,-2.7065121456666663
mp-1110598,Rb2TlAgF6,-2.345675436
mp-1110599,Rb2TiAgF6,-2.929266637
mp-1110600,Rb2ScAgF6,-3.194765403166666
mp-1110601,Rb2AgRuF6,-2.243152053666666
mp-1110602,Rb2AgRhF6,-2.264492504666665
mp-1110603,Rb2AgPdF6,-2.169373212666664
mp-1110604,Rb2NiAgF6,-2.336377894666666
mp-1110605,Rb2NbAgF6,-2.620458913666666
mp-1110606,Rb2MnAgF6,-2.6029656234597702
mp-1110607,Rb2AgIrF6,-2.166378665666666
mp-1110608,Rb2InAgF6,-2.621729162333333
mp-1110609,Rb2GaAgF6,-2.6974395524166663
mp-1110610,Rb2CrAgF6,-2.736779278666666
mp-1110611,Rb2CoAgF6,-2.356622655666667
mp-1110613,Rb2AgAsF6,-2.429388063416666
mp-1110784,Rb2AgMoF6,-2.5906074216666672
mp-1110786,Rb2YAgF6,-3.186883124666669
mp-1110787,Rb2AgSbF6,-2.513192742666666
mp-1110788,Rb2PrAgF6,-3.113763317833332
mp-1110789,Rb2NdAgF6,-3.130812890416666
mp-1110790,Rb2AgBiF6,-2.542093180666666
mp-1110794,Rb2TaAgCl6,-1.6324497973999992
mp-1110795,Rb2ScAgCl6,-2.120679242166666
mp-1110796,Rb2AgMoCl6,-1.596520025666666
mp-1110800,Rb2YAgCl6,-2.172295242666666
mp-1110801,Rb2YAgBr6,-1.8592620886666662
mp-1110802,Rb2TaAgBr6,-1.323352997399999
mp-1110803,Rb2AgSbCl6,-1.615785375666666
mp-1110804,Rb2AgSbBr6,-1.366274936666666
mp-1110805,Rb2PrAgCl6,-2.146478773833332
mp-1110806,Rb2NdAgCl6,-2.153734668416666
mp-1110807,Rb2NdAgBr6,-1.852370581416666
mp-1110808,Rb2AgMoBr6,-1.299246832666666
mp-1110809,Rb2CeAgCl6,-2.141492367666666
mp-1110810,Rb2AgBiCl6,-1.665001007666667
mp-1110811,Rb2AgBiBr6,-1.413070619666666
mp-1110816,Rb2YAgI6,-1.408657044666666
mp-1110817,Rb2AgSbI6,-0.9987248226666661
mp-1110818,Rb2PrAgBr6,-1.848100200833332
mp-1110819,Rb2AgMoI6,-0.8914548816666661
mp-1110820,Rb2CeAgBr6,-1.842134083666665
mp-1110821,Rb2AgBiI6,-1.038919942666666
mp-1110823,Rb2PrAgI6,-1.411647319833333
mp-1110824,Rb2NdAgI6,-1.413274834416666
mp-1110825,Rb2CeAgI6,-1.403327147666666
mp-1110842,K2AgMoF6,-2.563260360616666
mp-1110847,K2YAgF6,-3.154359353616666
mp-1110848,K2AgSbF6,-2.482672075616666
mp-1110849,K2PrAgF6,-3.075195209783333
mp-1110850,K2NdAgF6,-3.093247290366665
mp-1110851,K2AgBiF6,-2.506700962616666
mp-1110857,K2TaAgF6,-2.656148408349999
mp-1110858,K2AgMoCl6,-1.406337978166679
mp-1110872,K2YAgCl6,-2.012176435999998
mp-1110873,K2AgSbCl6,-1.362271146750004
mp-1110874,K2InAgCl6,-1.674026557283333
mp-1110911,K2YAgBr6,-1.815570857616666
mp-1110912,K2AgSbBr6,-1.322933582616666
mp-1110913,K2PrAgCl6,-2.102072147783333
mp-1110914,K2PrAgBr6,-1.801512863783333
mp-1110915,K2NdAgCl6,-1.9837469667499992
mp-1110916,K2NdAgBr6,-1.8063844393666662
mp-1110917,K2AgMoBr6,-1.261947738616666
mp-1110918,K2CeAgCl6,-2.097444214616666
mp-1110919,K2CeAgBr6,-1.795749157616665
mp-1110920,K2AgBiCl6,-1.6220751856166662
mp-1110921,K2AgBiBr6,-1.368099099616666
mp-1110947,K2YAgI6,-1.361794086616666
mp-1110948,K2TaAgI6,-0.8605439233499991
mp-1110949,K2AgSbI6,-0.9529765906166661
mp-1110950,K2NdAgI6,-1.364911975366666
mp-1110951,K2AgMoI6,-0.8501904426166661
mp-1110952,K2AgBiI6,-0.9916730286166661
mp-1110966,K2PrAgI6,-1.362957491783333
mp-1110967,K2CeAgI6,-1.354844943616666
mp-1110987,Cs2YAgF6,-3.207796222097701
mp-1111091,Na2NbAgF6,-2.365670392166666
mp-1111092,Na2YAgF6,-2.977369576000001
mp-1111093,Na2AgAsF6,-2.230443554192528
mp-1111094,Na2CrAgF6,-2.556679519442528
mp-1111099,Li2CoAgF6,-2.084272759833332
mp-1111121,Na2GaAgCl6,-1.473927971192528
mp-1111146,Li2NiAgF6,-2.021007083083335
mp-1111184,Na2InAgBr6,-1.201057848109195
mp-1111188,Na2GaAgI6,-0.7563067011925281
mp-1111192,Na2AgAsBr6,-1.059481001192528
mp-1111313,Na2VAgF6,-2.533360947999998
mp-1111314,Na2TlAgF6,-2.073246263749998
mp-1111315,Na2TiAgF6,-2.747848715775861
mp-1111316,Na2ScAgF6,-2.957031199833333
mp-1111317,Na2AgSbF6,-2.297960701442528
mp-1111319,Na2AgRuF6,-2.115148350499999
mp-1111320,Na2AgRhF6,-2.077397621442528
mp-1111321,Na2AgPdF6,-1.9113476919166712
mp-1111323,Na2AgMoF6,-2.418915739499999
mp-1111324,Na2MnAgF6,-2.432016140235632
mp-1111325,Na2AgIrF6,-1.9888569672083292
mp-1111326,Na2InAgF6,-2.38118393333333
mp-1111329,Na2GaAgF6,-2.5217648191925273
mp-1111331,Na2FeAgF6,-2.389226476442528
mp-1111334,Na2CoAgF6,-2.185827259442528
mp-1111362,Li2MnAgF6,-2.307116700626436
mp-1111363,Li2FeAgF6,-2.234536440833333
mp-1111365,Li2AgAsF6,-2.099296565583333
mp-1111468,Rb2GaAgCl6,-1.686171565416666
mp-1111486,Rb2GdAgCl6,-2.172751832666666
mp-1111523,Na2TmAgCl6,-1.8087830905
mp-1111525,Na2ScAgCl6,-1.744232230500002
mp-1111531,Na2LuAgCl6,-1.807236088166671
mp-1111534,Na2InAgCl6,-1.312393254333331
mp-1111537,Na2GaAgBr6,-1.173909956192528
mp-1111538,Na2AgSbCl6,-1.165585368750001
mp-1111543,Na2AgAsCl6,-1.087198737499999
mp-1111551,Na2TaAgF6,-2.44288677695333
mp-1111628,Rb2TmAgCl6,-2.182204191666667
mp-1111629,Rb2TlAgCl6,-1.546812579
mp-1111632,Rb2LuAgCl6,-2.181767257333333
mp-1111634,Rb2InAgCl6,-1.710742968333332
mp-1111636,Rb2ErAgCl6,-2.181475685666666
mp-1111655,Rb2AgAsCl6,-1.535834353416666
mp-1111723,Rb2TlAgBr6,-1.312936539
mp-1111724,Rb2TbAgCl6,-2.176792811333333
mp-1111725,Rb2SmAgCl6,-2.163506613166666
mp-1111726,Rb2ScAgBr6,-1.799523226166666
mp-1111727,Rb2LaAgCl6,-2.187830372166666
mp-1111729,Rb2InAgBr6,-1.437007130333333
mp-1111731,Rb2GaAgBr6,-1.397193637416666
mp-1111732,Rb2EuAgCl6,-2.028006738166666
mp-1111733,Rb2DyAgCl6,-2.177876610833332
mp-1111735,Rb2AgAsBr6,-1.289603306416666
mp-1111798,Rb2TlAgI6,-0.9637666960000001
mp-1111799,Rb2ScAgI6,-1.343710374166666
mp-1111801,Rb2InAgI6,-1.0402692563333331
mp-1111802,Rb2GaAgI6,-0.9920756434166661
mp-1111827,Rb2TaAgI6,-0.9023552963999991
mp-1111828,Rb2TaAgF6,-2.699211225399999
mp-1111844,Rb2CeAgF6,-3.118304369666666
mp-1111950,K2AgRhF6,-2.246720276616666
mp-1111986,K2LuAgCl6,-2.142704011283332
mp-1111998,K2ScAgBr6,-1.7599665481166662
mp-1112001,K2AgAsBr6,-1.251376618366666
mp-1112078,K2TlAgI6,-0.917855138949999
mp-1112081,K2TlAgCl6,-1.50777397895
mp-1112083,K2TaAgCl6,-1.597737288349999
mp-1112085,K2TaAgBr6,-1.285183975349999
mp-1112086,K2ScAgI6,-1.299872320116666
mp-1112087,K2SmAgCl6,-1.99440292225
mp-1112095,K2InAgI6,-0.9957382852833331
mp-1112098,K2DyAgCl6,-2.136845571783333
mp-1112271,K2VAgF6,-2.688357245616667
mp-1112272,K2TlAgF6,-2.315529212949999
mp-1112274,K2TiAgF6,-2.909961143949999
mp-1112275,K2ScAgF6,-3.171970405116666
mp-1112276,K2AgRuF6,-2.222506260616666
mp-1112279,K2AgPdF6,-2.153241984616666
mp-1112280,K2NbAgF6,-2.5928818616166662
mp-1112281,K2MnAgF6,-2.5918495084097692
mp-1112282,K2AgIrF6,-2.145001022616666
mp-1112283,K2InAgF6,-2.595298415283332
mp-1112284,K2GaAgF6,-2.684092103366666
mp-1112286,K2FeAgF6,-2.5556410536166663
mp-1112287,K2CrAgF6,-2.721524893616666
mp-1112288,Cs2YAgCl6,-2.207876866097701
mp-1112290,K2AgAsF6,-2.406359153366666
mp-1112323,Cs2YAgBr6,-1.9004306030977012
mp-1112334,Cs2TaAgBr6,-1.356169582831035
mp-1112335,K2CeAgF6,-3.072455072616666
mp-1112443,K2TmAgCl6,-2.006621741399999
mp-1112445,K2TlAgBr6,-1.27055994995
mp-1112446,K2TbAgCl6,-2.135362085283332
mp-1112448,K2ScAgCl6,-1.939350192416665
mp-1112464,K2InAgBr6,-1.3966069672833321
mp-1112466,K2GaAgI6,-0.9506559563666661
mp-1112469,K2GaAgCl6,-1.6562644693666662
mp-1112470,K2GaAgBr6,-1.361663200366666
mp-1112472,K2EuAgCl6,-1.986596208116667
mp-1112473,K2ErAgCl6,-2.1412248506166662
mp-1112480,K2AgAsCl6,-1.501012421366666
mp-1112481,K2LaAgCl6,-2.014556409750002
mp-1112622,Cs2ScAgCl6,-2.147683048597701
mp-1112639,Cs2VAgF6,-2.736490122166665
mp-1112931,Cs2YAgI6,-1.4560710330977011
mp-1112933,Cs2TlAgI6,-1.010044748431035
mp-1112935,Cs2TaAgI6,-0.943102258831034
mp-1112938,Cs2ScAgI6,-1.386986988597701
mp-1112940,Cs2AgSbCl6,-1.651126571097701
mp-1112941,Cs2AgSbI6,-1.044632548097701
mp-1112942,Cs2PrAgI6,-1.461820751264368
mp-1112943,Cs2AgSbBr6,-1.4068146840977
mp-1112944,Cs2NdAgBr6,-1.897230833847701
mp-1112945,Cs2NdAgCl6,-2.193925534847708
mp-1112950,Cs2NbAgF6,-2.589333719666663
mp-1113115,Cs2ScAgF6,-3.200004091597701
mp-1113150,Cs2TlAgF6,-2.3620012504310353
mp-1113222,Cs2TaAgCl6,-1.6582391008310342
mp-1113226,Cs2AgMoF6,-2.602620705097701
mp-1113227,Cs2AgSbF6,-2.529717503097701
mp-1113229,Cs2NdAgF6,-3.137904715750005
mp-1113230,Cs2PrAgF6,-3.144332087264368
mp-1113232,Cs2AgMoCl6,-1.454606304166665
mp-1113236,Cs2PrAgCl6,-2.187607407264367
mp-1113243,Cs2AgMoBr6,-1.330556895097701
mp-1113262,Cs2CeAgBr6,-1.8869487550977
mp-1113264,Cs2AgBiI6,-1.086875971097701
mp-1113269,Cs2NdAgI6,-1.4629922338477
mp-1113271,Cs2CeAgI6,-1.4531444210977011
mp-1113442,Cs2TlAgCl6,-1.5787584944310251
mp-1113444,Cs2TlAgBr6,-1.351672621431034
mp-1113451,Cs2ScAgBr6,-1.834310511597701
mp-1113538,Cs2CeAgF6,-3.147149339097701
mp-1113539,Cs2CoAgF6,-2.318850262097701
mp-1113542,Cs2LuAgCl6,-2.213980608764367
mp-1113543,Cs2AgAsCl6,-1.5611243658477
mp-1113553,Cs2GaAgBr6,-1.425489123847701
mp-1113554,Cs2InAgBr6,-1.472874406764367
mp-1113565,Cs2InAgI6,-1.084367894764367
mp-1113570,Cs2CeAgCl6,-2.1820707900977
mp-1113578,Cs2AgAsBr6,-1.322267520847702
mp-1113583,Cs2GaAgF6,-2.688667714847702
mp-1113585,Cs2LaAgCl6,-2.099733136999998
mp-1113588,Cs2InAgF6,-2.6328010377643682
mp-1113592,Cs2GdAgCl6,-2.209648464097701
mp-1113594,Cs2GaAgI6,-1.031025850847701
mp-1113622,Cs2AgIrF6,-2.091066187666678
mp-1113623,Cs2GaAgCl6,-1.7040479408477012
mp-1114070,Cs2TaAgF6,-2.872888780253322
mp-1114305,Cs2AgAsF6,-2.433482206847701
mp-1114309,Cs2AgBiF6,-2.471992757000001
mp-1120775,Cs2AgBiBr6,-0.30408306009770103
mp-1206237,Ba2AgIO6,-1.8766491276666661
mp-13687,Cs2KAgF6,-2.3958961098227
mp-1223900,InAgSeS,-0.541047869218751
mp-1223961,InAgTeSe,-0.443123988515623
mp-1224845,GaAgSeS,-0.572482363593749
mp-1224853,GaAgTeSe,-0.42673515164062403
mp-1238893,TiCrAgS4,-1.10472030642857
mp-1239266,HfCrAgS4,-1.2300536059523801
mp-1235473,RbLiAgO2,-0.9866635924999991
mp-2227393,MgAgPdO2,-1.025088209333332
mp-2227990,BaMgAgO2,-1.4592329953333332
mp-1238857,TiCrAgS4,-0.9110899932142841
mp-1238868,TiCrAgS4,-1.020854792499999
mp-1246342,ZrCrAgS4,-1.104154277380951
mp-1246605,HfCrAgS4,-1.13022774238095
mp-1238880,TiCrAgS4,-0.8058289669642841
mp-1239242,HfCrAgS4,-1.005286190773808
mp-1223238,La3Mn4AgO12,-2.559307303919539
mp-1238870,TiCrAgS4,-0.9700455049999991
mp-1239238,HfCrAgS4,-1.214920078095236
mp-1246366,ZrCrAgS4,-1.185338933095237
mp-1212465,KCeAgTe4,-1.079232500083331
mp-1238829,TiCrAgS4,-0.9165268678571411
mp-1238873,TiCrAgS4,-1.022470626071427
mp-1238877,TiCrAgS4,-1.015964289999999
mp-1246999,HfCrAgS4,-1.125202903095236
mp-1247010,ZrCrAgS4,-1.098816185238093
mp-1247013,ZrCrAgS4,-1.105636077738094
mp-1247338,HfCrAgS4,-1.132446434880951
mp-6356,Cd2GaAgS4,-0.8115381298958321
mp-1208280,TiAgPO5,-2.583638071986606
mp-558807,ZnAgPS4,-0.6447761691156451
mp-704626,FeAg(SeO3)2,-1.247794580885416
mp-553923,K2AgSbS4,-0.7550770369713521
mp-1229157,AgSb3PbS6,-0.5158655965151501
mp-1229202,AgBi3PbS6,-0.598810868787878
mp-1221250,Na3Ag(TeS3)2,-0.748815760761493
mp-1229086,AgSO3F,-1.5913343448611101
mp-643123,K5Ag(NO)2,-0.18685247029166602
mp-985571,LiAg(CO2)2,-1.499771361249999
mp-985593,NaAg(CO2)2,-1.4700549928807471
mp-1201239,U2Ag(GeO6)2,-2.33030369862745
mp-1226391,Cs5CoAgCl8,-1.7034623704999752
mp-1229053,AgHgAsO4,-1.131254678809524
mp-558460,NaAg(NO2)2,-0.8708610916307471
mp-1225504,Fe3Ag(SnS4)2,-0.598285781547617
mp-1229030,AgGeBiTe3,-0.10281484874999001
mp-1229036,AgSbTe3Pb,-0.36829673027777604
mp-1229064,AgSbPbS3,-0.492558057361109
mp-1229113,AgBiTe3Pb,-0.260800182083329
mp-1229121,AgBiPbS3,-0.5514059090277761
mp-1191720,TlAgTeO3,-1.085615026527778
mp-1238871,TiCrAgS4,-0.9582519014285711
mp-1246994,ZrCrAgS4,-1.200540584523808
mp-1367745,Ca2YAgO5,-2.534180981851852
mp-1235193,RbLiAgO2,-1.018180470499999
mp-1236284,RbLiAgO2,-1.115422426499999
mp-2210650,MgAgPdO2,-0.885345575333332
mp-2225893,MgAgPdO2,-0.9970460873333321
mp-1216770,V2AgP3O11,-2.500062344446779
mp-1221042,NaGa6AgTe10,-0.606150395539591
mp-1224724,InAg(MoO4)2,-1.73607568625
mp-1226281,CrAg(PSe3)2,-0.520396303501487
mp-1238852,TiCrAgS4,-1.10413048642857
mp-18901,VAgHgO4,-1.405343847738096
mp-2230297,MgTi6AgS12,-1.554948846833332
mp-2230622,MgTi6AgS12,-1.545589534333332
mp-6543,VAg(PSe3)2,-0.32076356612024803
mp-558446,AgHgSI,-0.42536662291666705
mp-560067,AgHgSBr,-0.544299855416667
mp-1203884,AgH12N4F,-0.569223980648148
mp-1210398,NiAg(PO3)3,-2.222616666560374
mp-1213893,CoAg(PO3)3,-2.090044187988945
mp-14260,ZnAg(PO3)3,-2.304116618435373
mp-15728,MgAg(PO3)3,-2.540037104774659
mp-556798,AgHg2PO4,-1.5083162942261912
mp-558188,AgHg2AsO4,-1.054451005520835
mp-1198619,VAg(IO4)2,-1.172486243524306
mp-1193968,AgH3CN2,-0.11670677613095201
mp-505238,EuTiAgO4,-2.659671293928572
mp-557135,VAgSeO5,-1.546204202688799
mp-560460,AgCN3O2,-0.019256932738096002
mp-699468,CsAg(BH)10,-0.197545709882919
mp-1196722,AgN2ClO4,1.001068284791666
mp-562550,AgCSN,0.110425484358263
mp-1210066,NaLaAgTe4,-1.09210178638752
mp-1238881,TiCrAgS4,-1.072024442857142
mp-1247006,ZrCrAgS4,-1.151751684166665
mp-545730,AgCNO,0.171816155833332
mp-1215584,Zn2GaAgSe4,-0.767718847317708
mp-1223177,La3Fe4AgO12,-2.332838851833334
mp-1226958,Cd2GaAgSe4,-0.695338894817707
mp-1238892,TiCrAgS4,-1.041387867142856
mp-1239246,HfCrAgS4,-1.110775606666665
mp-1246979,ZrCrAgS4,-1.093993409523808
mp-559562,AgTeNO5,-0.9806877369791661
mp-1042404,MgAgBiO5,-1.297627935833334
mp-1042418,ZnAgBiO5,-0.9748666314583341
mp-1042455,CaAgBiO5,-1.351341723020834
mp-1180419,NaAgI2O3,-0.253811978292282
mp-1200038,NaAgI2O3,-0.36219287775656706
mp-24053,AgH2ClO5,-0.7006959315740741
mp-650510,AgC3N3O,0.167214590729165
mp-654129,GaAg(PSe3)2,-0.5038413846264871
mp-1192534,MgVAgO4,-2.158205882738095
mp-1194352,AgI3N2O,1.025575144404761
mp-1196464,CsFeAgF6,-2.370037151257982
mp-1209226,RbGaAgF6,-2.4916727293518512
mp-1209325,RbFeAgF6,-2.353121934351852
mp-1213239,CsGaAgF6,-2.508966887369093
mp-1238884,TiCrAgS4,-1.013935877857142
mp-1238896,TiCrAgS4,-0.907850303571428
mp-1238898,TiCrAgS4,-0.9342935639285701
mp-1238901,TiCrAgS4,-1.000072332142856
mp-1239237,ZrCrAgS4,-1.09934821488095
mp-1239247,HfCrAgS4,-1.118648501309522
mp-24576,VAg(HO2)2,-1.542220900520833
mp-541708,VCdAgO4,-1.69539330845238
mp-542979,MnVAgO4,-1.8842987613711
mp-554796,BaSc3AgS6,-2.007088505833331
mp-559172,KCr2AgO7,-1.615762661946969
mp-560443,AgHg2NO5,-0.680979918240742
mp-10337,BaYAgTe3,-1.4644986619444431
mp-1102595,CsNpAgS3,-1.3483117812619732
mp-1213950,CaAgAsO4,-2.046540524166666
mp-13346,CsUAgS3,-1.388841311470304
mp-13350,RbUAgS3,-1.368965539444442
mp-13351,RbUAgSe3,-1.260095683532984
mp-510662,CsUAgSe3,-1.276257089725512
mp-556094,AgBiSCl2,-0.9455932878333341
mp-6070,AgCNO,0.080798767083332
mp-6647,BaYAgSe3,-1.773074978116318
mp-865937,KNpAgS3,-1.325421777527777
mp-1182972,AgCNO,2.060360442083333
mp-561891,AgCNO,2.190665165833333
mp-1040828,LaCrAgO6,-1.8774336140740742
mp-1196210,NaAg(SO2)2,-1.068576042880746
mp-1226935,CeAg(PSe3)2,-0.793737951001487
mp-1229272,AgSb3PbS6,-0.43620195696969505
mp-1229291,AgSb3PbS6,-0.41064128060605903
mp-1236920,AgSb3PbS6,-0.44389006606060405
mp-985572,LiAg(CO2)2,-1.498342102499999
mp-985594,NaAg(CO2)2,-1.469169655380747
mp-1210520,Rb2TaAgS2,-0.40546048358333103
mp-1211022,Rb2VAgSe2,-0.403608653975693
mp-1212401,K2VAgS2,-0.43132326477777705
mp-1212411,K2VAgSe2,-0.41651508680902705
mp-14634,K2VAgSe4,-1.084775347567707
mp-14635,Rb2VAgSe4,-1.103068673880207
mp-14636,Rb2NbAgS4,-1.263800423333332
mp-14637,Cs2NbAgSe4,-1.193972837544
mp-15214,K2NbAgS4,-1.240613618895833
mp-15216,K2TaAgS4,-1.276504412937499
mp-15217,Rb2TaAgS4,-1.299841390499999
mp-15218,Cs2TaAgS4,-1.326573578538793
mp-623028,Cs2NbAgS4,-1.290435189497126
mp-8684,Cs2VAgS4,-1.229353878872125
mp-8900,K2VAgS4,-1.189332644520823
mp-8901,Rb2VAgS4,-1.206550812083332
mp-9764,Rb2NbAgSe4,-1.166107204505207
mp-1189890,AgC4NCl2,1.754109700944008
mp-1191888,KAgCO3,-1.578342300652777
mp-541966,KAgCO3,-1.6461808939861111
mp-1218048,TaAgWO7,-2.022998656399999
mp-1220513,NbAgWO7,-1.9022252081666662
mp-1224048,InAgSnS4,-0.6941361497619031
mp-1225939,CsScAgF6,-3.057064507369093
mp-1225942,CsInAgF6,-2.425349598109834
mp-1225957,CsTlAgF6,-2.117431898850575
mp-1226291,CrAgSnS4,-0.7587676995238091
mp-1226303,CrAgSnSe4,-0.660701050863094
mp-1229079,AgSbWO7,-1.508686119666665
mp-1239239,HfCrAgS4,-1.230339253095236
mp-1246425,ZrCrAgS4,-1.200123445952379
mp-23565,Cr4AgBiO14,-1.535249863083333
mp-1220551,Nb4AgBi5O18,-2.305072142916668
mp-1223909,In2AgTe3I,-0.555755029999998
mp-1226727,CdInAgTe3,-0.42329402999999804
mp-1226962,Cd2InAgS4,-0.642272887656249
mp-1226972,Cd2GaAgSe4,-0.713357531067707
mp-1229084,AgW2(Br3O)2,-1.0959673328787871
mp-1238875,TiCrAgS4,-1.101449394999999
mp-1246416,ZrCrAgS4,-1.181519349523808
mp-1246783,HfCrAgS4,-1.212519957380951
mp-2210750,MgMnAgO2,-1.59128216091954
mp-2218476,MgCr3AgO8,-1.79329508051282
mp-2225918,MgFeAgO2,-1.359253099333332
mp-2226161,MgCoAgO2,-1.226287415333332
mp-2241220,MgNbAgO3,-1.98514408861111
mp-1228309,Ba4Ga5AgSe12,-1.3977960660132571
mp-1025333,AgWS4N,0.38834541832589503
mp-1215591,YbAg(MoO4)2,-2.367716986666664
mp-1223888,InAgSnSe4,-0.48562385089286003
mp-1223893,InAgGeSe4,-0.6230491889583321
mp-1224848,GaAgSnSe4,-0.6752889890773811
mp-1224876,GaAgSnSe4,-0.673376457648809
mp-559885,Cr2AgBiO8,-1.490484460138888
mp-560923,AgPb4ClO4,-1.338816083666668
mp-1212957,Fe4AgXeF5,-0.9284423056060591
mp-1195262,AgBi(IO3)4,-0.9253991323148141
mp-1195616,LaAg(IO3)4,-1.286419559398148
mp-1195810,YAg(IO3)4,-1.265989378703703
mp-1224820,GaAgSeS,-0.57429897359375
mp-1224898,GaAg(GeSe3)2,-0.609844400822916
mp-1229264,AgMo5P8O33,-2.3552361065704153
mp-6215,AgHgAsS3,-0.36442808402777704
mp-662241,Rb2NbAgSe4,-1.160496058255208
mvc-5327,Ca2YAgO5,-2.5347069535185183
mp-1076492,La6Sm2Co7AgO20,-2.587266563310186
mp-1076656,La5Sm3Ni7AgO20,-2.189416497060185
mp-1076724,La4Sm4Co7AgO20,-2.5757048983101862
mp-1076765,La4Sm4Ni7AgO20,-2.459980685462963
mp-1219639,RbNb4Ag(PS10)2,-0.9957318160161551
mp-1220239,Rb3AgGe4(Se5O)2,-0.7834545128802091
mp-1221297,Na3Co6Ag(P2O7)4,-2.257784185064075
mp-1223407,KNb4Ag(PS10)2,-0.986758546007207
mp-1225073,Ga6AgSb7(TeCl3)8,-1.171420904565217
mp-1235150,LiZn2AgWO6,-1.710629617727273
mp-1235459,LiZn2AgWO6,-1.75662196590909
mp-1247850,AgPH6(NF3)2,-1.5876316824255952
mp-2215830,MgZn2AgWO6,-1.7745325778787882
mp-2215908,MgZn2AgWO6,-1.8131558015151499
mp-2215977,MgZn2AgWO6,-1.794647944242423
mp-2218355,YMgAg(WO4)2,-2.38295686128205
mp-2218531,YMgAg(WO4)2,-2.381319239743589
mp-697231,TlAgAs2PbS5,-0.482980673649999
mp-1229269,AgPb2Cl3OF,-1.370881529895832
mp-744084,MnAgH8(OF)4,-1.599134833866538
mp-1181427,FeAgAs(S2N3)2,0.5310310069871781
mp-1194556,FeAgSb(S2N3)2,0.452980762564103
mp-1213409,Fe4AgP(XeF3)2,-0.826279714736394
mp-1213657,Fe4AgAs(XeF3)2,-1.256441652083333
mp-1183030,AgS8N9(ClO6)2,-0.012674483489583001
mp-1192660,AgH2CS2N,-0.26311098773809505
mp-1200371,AgH36S8N11O18,-0.817968676103603
mp-1204181,AgS8N9(ClO6)2,0.24787053416666702