material_id,formula,formation_energy_per_atom
mp-1192890,Al5C2N6F17,-2.047212027833333
mp-667386,Na3Sr4Al5F26,-3.871635892543103
mp-2714737,Na6Nb3Al5(PO4)12,-2.902405824828697
mp-2714836,Na6Ta3Al5(PO4)12,-2.954761313369235
mp-677638,Na27Ca3Al5(P2O7)12,-2.789745149011677
mp-697332,La7Ti27Al5(CuO4)24,-2.720968036509435
mp-1173209,Sr4Nd3Ta2Al5O21,-3.536336247490476
mp-676456,Sr6La2Ta3Al5O24,-3.5335284908
mp-1198719,K3Al5P8(H21O25)2,-1.9872516700591931
mp-1256333,Al5Cu3Si6(O7F2)3,-2.862987054512195
mp-2714792,Na6Ta3Al5Si6(SO8)6,-2.693616118314538
mp-2716557,Na6Nb3Al5Si6(SO8)6,-2.64919440148571
mp-695616,Ca6TiAl5Si6(O5F)5,-3.533616396319445
mp-1210323,NaAl5FeP4(H5O12)2,-2.427631383387793
mp-1210892,NaMgAl5P4(H5O12)2,-2.50139737205446
mp-1227826,Ca4Al5CrSi6(HO13)2,-3.208431632556818
mp-720332,Na5CaAl5Fe(SiO3)12,-3.126551824781609
mp-1228294,Ca4Al5FeSi6(HO13)2,-3.175291149147727
mp-1190320,Al6Ge5,0.043884120909089004
mp-16528,Al6Re,-0.23009870964285703
mp-16529,Al6Ru,-0.353180652857143
mp-16718,Al6Tc,-0.286405851428568
mp-173,MnAl6,-0.17369762541871903
mp-570001,Al6Fe,-0.195844072142856
mp-1212183,Li7Al6,1.577109371025641
mp-1259569,Ba7(Al3Te8)2,-1.155636869885056
mp-676724,Ca(Al3Te5)2,-0.507849409852948
mp-676990,Ba7(Al3Te8)2,-1.108316879195401
mp-686476,Al6Bi24Cl23,-0.967941333773586
mp-771838,La4Al6O15,-3.589059096200001
mp-1213784,CeAl6Pd,-0.503577427499998
mp-1215183,ZrUAl6,-0.38883436656249803
mp-1215216,ZrNbAl6,-0.488648365624999
mp-1215336,ZrAl6Mo,-0.423492733749998
mp-1217017,TiAl6Mo,-0.40432835458333205
mp-1217891,TaTiAl6,-0.40487872299999905
mp-1217893,TaNbAl6,-0.43484521091666606
mp-1220329,NbAl6Mo,-0.401987305625
mp-560974,BeAl6O10,-3.395172896985295
mp-1024042,La4Al6O15,-3.5918759578
mp-680432,Sr10Al6O19,-3.313190807785715
mp-530331,Al6SnTe10,-0.6946291857843131
mp-1215954,Zr10Al6O,-0.7139548344117641
mp-1228194,Al6CoCu3,-0.321334645999999
mp-1215992,YErAl6,-0.46467458604166406
mp-1225066,GdErAl6,-0.455333500833333
mp-1228266,Al6CO7,-2.638636529285714
mp-1215691,Zr10Al6O,-0.703329737941176
mp-1217788,Ta10Al6B,-0.343240523649021
mp-570487,Ca10(Al2Ge3)3,-0.627424846000004
mp-5798,Al6C3N2,-0.534818043181817
mp-1182901,Al6B5O18,-2.691190370545977
mp-1214854,Al6B5O18,-2.918646865890805
mp-1217341,ThUAl6,-0.31760625281249905
mp-1217618,TbGdAl6,-0.47269884374999904
mp-1219715,PrYAl6,-0.470198120208332
mp-1219721,PrNdAl6,-0.48805862739583106
mp-1222789,LaPrAl6,-0.485477719583332
mp-1222797,LaNdAl6,-0.48834166156249903
mp-1224644,GdHoAl6,-0.462937899374997
mp-1215596,YbYAl6,-0.44496370437499805
mp-1224902,GdErAl6,-0.15442998229166502
mp-1224918,GdHoAl6,-0.45323993437499804
mp-1214809,Al6GeW,-0.122288966874997
mp-1246158,Al6W5N16,-0.8491749508564811
mp-561507,Ca4Al6O13,-3.291576022391305
mp-7531,Ca4Al6O13,-3.437075475869565
mp-17694,Ca5Al6O14,-3.4410954873999993
mp-853024,La4Al6O15,-3.5894464784
mp-30906,Sr2Al6O11,-3.457627543421051
mp-696353,Al6C3N2,-0.177737230454544
mp-680193,Ca4Al6O13,-3.409531802934783
mp-1199697,Ce3(Al3Pt2)2,-0.97445844076923
mp-1217038,U(AlCu)6,-0.104203941538461
mp-1215711,Zr(MnAl)6,-0.26967716212201504
mp-1215723,Zr(AlFe)6,-0.40122693153846
mp-1215770,Yb(AlFe)6,-0.342808011153845
mp-1216148,Y(AlFe)6,-0.38531596461538403
mp-1216200,Y(MnAl)6,-0.242549741352786
mp-1216210,Y(AlCu)6,-0.38935376615384704
mp-1216674,Tm(AlCr)6,-0.11984980615384601
mp-1216745,Tm(AlCu)6,-0.38750917461538403
mp-1216757,Tm(AlFe)6,-0.39317704307692203
mp-1216785,Tm(MnAl)6,-0.24939435904509302
mp-1216958,U(AlFe)6,-0.285075966153843
mp-1217834,Tb(MnAl)6,-0.24150245801945103
mp-1217839,Tb(AlCu)6,-0.393095849230768
mp-1217840,Tb(AlFe)6,-0.38329290282050904
mp-1219472,Sc(AlFe)6,-0.399302111923076
mp-1219887,Pr(AlFe)6,-0.333349134743589
mp-1222373,Lu(AlCr)6,-0.10246507282050901
mp-1222375,Lu(MnAl)6,-0.25024220263483504
mp-1222454,Lu(AlCu)6,-0.38056048128205106
mp-1224046,Ho(AlCu)6,-0.34874506576923003
mp-1224066,Ho(MnAl)6,-0.24566306250663003
mp-1224088,Ho(AlFe)6,-0.38841038192307303
mp-1224395,Hf(AlFe)6,-0.38733821153846104
mp-1224928,Gd(AlFe)6,-0.38083315923076805
mp-1225036,Gd(AlCu)6,-0.378114130769229
mp-1225071,Er(AlCu)6,-0.34708141384615204
mp-1225086,Er(MnAl)6,-0.24889618827586202
mp-1225092,Er(AlFe)6,-0.392188797692305
mp-1225098,Er(AlCr)6,-0.11928613923076802
mp-1225398,Dy(MnAl)6,-0.24323842455791203
mp-1225629,Dy(AlFe)6,-0.38618336858974
mp-1225665,Dy(AlCu)6,-0.35122623397435804
mp-1225667,Dy(AlCr)6,-0.09830501653846101
mp-1225943,Gd(AlCr)6,0.33423558746154103
mp-530216,MgAl6O10,-3.372571268970587
mp-530233,MgAl6O10,-3.352649592058823
mp-531782,MgAl6O10,-3.348107389705882
mp-532405,MgAl6O10,-3.362838172205881
mp-695592,Ca10Al6Si13N30,-1.398868988305084
mp-1225642,Eu2Al6Si3Au2,-0.447779401538462
mp-731872,MnAl6Si4O19,-3.131122950764367
mp-1218517,Sr4Al6MoO16,-3.288219811111111
mp-1218564,Sr4Al6CrO16,-3.243975778518519
mp-555865,Na2Sr7Al6F34,-3.9737082610767063
mp-581263,Sr13Al6Si8O,-0.5826641416071421
mp-14865,Sr4Al6WO16,-3.3083688602314822
mp-6120,Sr4Al6MoO16,-3.294082419398147
mp-1173749,Na8Al6Si6O25,-3.022759674578545
mp-684833,Na8Al6Si6O25,-3.016721267022989
mp-11628,Tb2Al6Si4Pt,-0.5920746392307681
mp-11629,Tb2Al6Si4Au,-0.392796674102567
mp-11630,Dy2Al6Si4Pt,-0.5163146964102551
mp-11631,Dy2Al6Si4Au,-0.386588383333332
mp-637030,Gd2Al6Si4Pt,-0.527730535384614
mp-638442,Gd2Al6Si4Au,-0.40115831461538404
mp-1227128,CaMg2Al6O12,-3.316888824285713
mp-6738,Al6B5(O5F)3,-3.272279260545977
mp-1218962,Sr15Al6(OF24)2,-3.939479865422535
mp-1208447,Sr4Al6SeO12,-3.370967043580163
mp-1210204,Na4Al6ClO12,-2.7005979428485762
mp-1227764,Ca4Al6SO16,-3.243706976574073
mp-14150,Ca4Al6SO16,-3.267172766944443
mp-14161,Sr4Al6SO16,-3.281709876574073
mp-15312,Ca4Al6TeO12,-3.3449745885507243
mp-19145,Ca4Al6WO16,-3.2719391688888892
mp-19259,Sr4Al6WO16,-3.296081272592592
mp-8876,Ca4Al6SO12,-3.380591705543477
mp-8877,Sr4Al6SO12,-3.374863685108694
mp-9203,Al6Cd4SO12,-2.7123131624999983
mp-9392,Sr4Al6TeO12,-3.351497833333332
mp-9535,Al6Cd4TeO12,-2.700609853768116
mp-1216589,U2Al6Pd3Pt,-0.6821846286458331
mp-1019575,Ca4Al6SO16,-3.295809557314814
mp-662566,Ca4Al6SO16,-3.290890393796295
mp-554152,Sr4Al6CrO16,-3.251243121851852
mp-1182682,Ca4Al6WO16,-3.100064343333333
mp-556028,Ca4Al6WO16,-3.291008087592592
mp-556889,Ca4Al6MoO16,-3.27698727574074
mp-554242,Ca4Al6WO16,-3.072251311481482
mp-560570,Rb2NaAl6F21,-3.7379751730459763
mp-1228556,Al6Cu2B4O17,-2.892894589022988
mp-1227619,Ca4Al6SO16,-3.288040727685184
mp-1227669,Ca4Al6CrO16,-3.227927518888888
mp-1227671,Ca4Al6MoO16,-3.2712530707407392
mp-1227687,Ca4Al6WO16,-3.28151785
mp-1225915,La2Al6CuAu,-0.5685734290000001
mp-1226991,Ce2Al6CuAu,-0.543583871999998
mp-1173479,RbAl6H20N5F24,-2.058939079598214
mp-1218728,SrCa2Al6(SiO5)6,-2.713871325333333
mp-1220960,NaAl6Sb7(TeCl3)8,-1.442908302276361
mp-1263047,RbAl6H20N5F24,-2.053797877633928
mp-1264155,Ca6Al6Si3(HO12)2,-3.073136538231707
mp-532626,NdAl6Si30(N15O)3,-1.404446182911765
mp-677026,Ca10Mg7Al6Si17O60,-3.362770839550001
mp-677127,YAl6Si18(N15O)2,-1.403933754035088
mp-677140,YAl6Si30(N15O)3,-1.391446350352942
mp-677177,RbAl6H20N5F24,-1.9746400029910722
mp-677497,SrMg2Al6(Si3O10)3,-3.32032745375
mp-677618,Ca6Al6Si3(HO12)2,-3.056655393353658
mp-686618,YAl6Si30(N15O)3,-1.409541973411766
mp-694056,BaMg2Al6(Si3O10)3,-3.329089233125
mp-695079,RbAl6H20N5F24,-1.976103360133929
mp-744914,Ca8MgAl6Si5O28,-3.054920174062498
mp-1226410,Cs2Na6Al6Ge7O30,-2.357296041423259
mp-39823,Na8Al6Si6CO27,-3.018920060021551
mp-1194752,CaAl6H12(SO7)4,-2.239315578921568
mp-2902906,Na8Al6Si6SO28,-3.016353704255806
mp-41734,Na8Al6Si6SO28,-3.019507004806913
mp-1182935,Al6CuP4(H4O7)4,-1.9767211668831162
mp-1200510,NaAl6Sb7(TeCl3)8,-1.443341315645927
mp-1202099,Al6CuP4(H4O7)4,-2.244785902701298
mp-686801,Al6ZnP4(H4O7)4,-1.580573839974025
mp-775365,Al6H16C5(Cl2O)6,-1.352906327444444
mp-1216022,YErAl6(BO3)8,-3.247983375833333
mp-1225326,EuYAl6(BO3)8,-3.191239635458333
mp-1203355,KNaAl6Si6(HO6)4,-2.992816279729269
mp-2714810,Na14Ta2Al6Si9(SO16)3,-2.795929284916386
mp-2714887,Na14Nb2Al6Si9(SO16)3,-2.765034264127769
mp-2715964,Na6Nb2Al6Si5S7O48,-2.587202602262737
mp-2715965,Na10Nb2Al6Si7S5O48,-2.688570699503758
mp-2716095,Na6Ta2Al6Si5S7O48,-2.615799435974448
mp-2716112,Na10Ta2Al6Si7S5O48,-2.71963191644393
mp-2716282,Na2Ta2Al6Si3(S3O16)3,-2.51329331868941
mp-2716291,Na2Nb2Al6Si3(S3O16)3,-2.4823760629560763
mp-1197226,KNaAl6Si6(HO6)4,-2.994802302229269
mp-1222471,Mg7TiAl6Si8(H4O19)2,-2.9220774376225482
mp-1207887,Y3Al6Si6B3H3O31,-3.099765021274039
mp-728227,NaMg3Al6Si6B3O31,-3.035102316777586
mp-818418,NaAl6Fe3Si6B3O31,-2.951927876477585
mp-1220843,Na8Al6Si6BrClO24,-3.069970506870315
mp-1220856,Na8Al6Si6IClO24,-3.052228109261619
mp-735910,K3Li5Al6Si10(O5F)6,-2.814698507473611
mp-1222184,MgAl6FeSi2(BO9)2,-3.195869743444445
mp-1197973,KNaAl6Si6(HO6)4,-2.994890560086412
mp-1201038,KNaAl6Si6(HO6)4,-2.991933193241174
mp-560093,Sr10Sm6Al6Si30N54O7,-1.6638711787168141
mp-1204100,Na2Ca2Al6Si9(H8O19)2,-2.6389072409282
mp-1204300,Na2Ca2Al6Si9(H8O19)2,-2.646713916818611
mp-1218654,SrCa3Al6Si6(HO13)2,-3.275320132329545
mp-1227953,BaNa2Sr6Al6(OF16)2,-3.811560327403238
mp-18401,NaAl6Fe3Si6B3O30F,-3.002951568077586
mp-863003,NaAl6Fe3Si6B3H3O30F,-2.891713858257157
mp-1221055,NaMg2Al6VSi6B3H3O31,-3.040559052596779
mp-14506,Al7Te10,-0.546650040882354
mp-11224,Sr8Al7,-0.19738584334567602
mp-30334,Th2Al7,-0.36647374055555304
mp-1222118,Mg5Al7O16,-3.24122944267857
mp-1225981,La2Al7Ni,-0.502110026
mp-1209190,Sm7Al7Co6,-0.41255328274999903
mp-4983,Nd7Al7Co6,-0.35492031512499606
mp-5711,Pr7Al7Co6,-0.33029430183333003
mp-1214866,Al7Cu2Ru,-0.353267437499999
mp-1214887,Al7Cu2Rh,-0.40226793049999804
mp-17856,Al7CoCu2,-0.27140275074999903
mp-4689,Al7FeCu2,-0.259595780999999
mp-1207790,Y12Al7Si,-0.46008947075000006
mp-1208126,Tm12Al7Si,-0.446133765750002
mp-1208605,Tb12Al7Si,-0.44216155768750104
mp-1209154,Sm12Al7Si,-0.403014774645836
mp-1212467,Ho12Al7Si,-0.44294998754166304
mp-1213130,Dy12Al7Si,-0.44340698314583105
mp-10876,Ca3Al7Cu2,-0.35616364499999903
mp-11430,Ca3Al7Ag2,-0.337991456666666
mp-637182,Gd3Al7Ag2,-0.48851941083333106
mp-865990,Y3Al7Cu2,-0.543417248333334
mp-11031,CeAl7Au3,-0.492241790454544
mp-11033,TbAl7Au3,-0.5144454565151511
mp-11034,PrAl7Au3,-0.515776057424242
mp-16620,LuAl7Au3,-0.5441324846969681
mp-16621,HoAl7Au3,-0.568672183181816
mp-16622,NdAl7Au3,-0.5195107870454531
mp-16623,DyAl7Au3,-0.509775461969698
mp-16624,ErAl7Au3,-0.562638111666666
mp-16626,SmAl7Au3,-0.5201712418181801
mp-16627,TmAl7Au3,-0.558152500454543
mp-22711,GdAl7Au3,-0.5655467863636361
mp-569102,Al7(CN)3,-0.682936678461539
mp-721592,Ca6Al7O16,-3.40961760413793
mp-1193200,Zr6Al7Cu16,-0.353385487931033
mp-1193693,Er6Al7Cu16,-0.37707961551724
mp-1193845,Ho6Al7Cu16,-0.37063730896551506
mp-1194170,Dy6Al7Cu16,-0.366140972413792
mp-980195,Tm6Al7Cu16,-0.41825327862069106
mp-28759,Al7(TlS4)3,-1.262489661818182
mp-1215612,YbAl7Fe5,-0.36744814730769304
mp-1215964,YAl7Fe5,-0.395412830769229
mp-1216017,YAl7Cu5,-0.37947114692307804
mp-1216319,UAl7Cu5,-0.224851189999991
mp-1216328,UAl7Fe5,-0.303738778461537
mp-1216685,TmAl7Fe5,-0.39895551461538203
mp-1216854,UMn5Al7,-0.19244470305039701
mp-1217593,TbAl7Fe5,-0.39412529512820405
mp-1222470,LuAl7Fe5,-0.398108374358973
mp-1223779,HoAl7Fe5,-0.39681180269230604
mp-1225357,DyAl7Fe5,-0.395691109358973
mp-1225641,ErAl7Fe5,-0.39901427307692106
mp-1218856,Sr2Al7Ge,-0.253743040499999
mp-1219937,Pr2Al7Cu,-0.43184842858334205
mp-1223239,La2Al7Cu,-0.45924898499999905
mp-1226175,Cs2Al7Tl,0.18638769608046102
mp-1218648,Sr6Al7ClO16,-3.419737000333333
mp-1227232,Ca6Al7ClO16,-3.446164730833333
mp-1227337,Ca6Al7O16F,-3.498796359666667
mp-1194721,Sc3Mn3Al7Si5,-0.49914450882183803
mp-997585,La8Al7GaO24,-3.6292226359375013
mp-997588,La8Al7BO24,-3.577816958979166
mp-997589,La8Al7InO24,-3.5674334321666663
mp-997590,La8MgAl7O24,-3.6297833676250013
mp-505576,Zr6Al7Cu16H9,-0.353043361348683
mp-1228228,Al7Cr(Bi2O9)2,-2.767509591666667
mp-1222670,Mg3Al7(Si2O11)2,-3.237399271666665
mp-1215380,Zr6Al7Cu16H3,-0.37228289386718705
mp-1216426,UAl7GaFe4,-0.06737457519230601
mp-1194690,PrMgAl7Fe2,-0.34998697765151404
mp-1195406,LaMgAl7Fe2,-0.367307848636363
mp-1019381,Al7Si3BO18,-3.331376750488506
mp-1216353,UAl7Fe3Cu2,-0.262988839999999
mp-1173192,SrAl7Tl5Si5O24,-2.86954890670635
mp-2713209,Na10TaAl7(PO4)12,-2.900515014104796
mp-2716336,Na10NbAl7(PO4)12,-2.884581357173173
mp-42036,Nd6Al7Si5N3O25,-3.296465864673912
mp-677001,SrAl7Tl5Si5O24,-2.794470957539684
mp-694958,Na2Li5Al7Si29O72,-3.180523235473265
mp-695648,KNa6Al7Si9O32,-2.902049742827743
mp-697305,K2Na5Al7Si5O24,-3.000122484102245
mp-2713445,Na10TaAl7Si6(SO8)6,-2.653171438198202
mp-2713455,Na10NbAl7Si6(SO8)6,-2.637846216352049
mp-743704,Ca4Y2Al7Cr2SiO24,-3.264489228374999
mp-1244893,Al8O3,-1.389686964545454
mp-2733,Al8Mo3,-0.38162391545454605
mp-1194040,Mn5Al8,-0.197021284204243
mp-19954,Al8Cr5,-0.04790163607692301
mp-1193259,Al8Fe5,-0.280431573076922
mp-1214872,Al8V5,-0.260518184615383
mp-1228763,Al8V5,-0.24997792576923003
mp-10877,Ca(Al2Cu)4,-0.29084872230769204
mp-10878,Ca(MnAl2)4,-0.26837879551724003
mp-10896,Y(MnAl2)4,-0.337732823209549
mp-11029,Y(Al2Cu)4,-0.342810726153847
mp-1103511,Lu(Al2Cu)4,-0.32544900051282005
mp-1103516,Tm(MnAl2)4,-0.340914733209549
mp-1103523,Lu(MnAl2)4,-0.338049003722359
mp-11037,Lu(Al2Fe)4,-0.42783645820513605
mp-1103819,La(MnAl2)4,-0.31427736513262605
mp-1103844,Ho(MnAl2)4,-0.341318992824932
mp-1103976,Ho(Al2Cr)4,-0.21117292192307602
mp-1104101,Er(MnAl2)4,-0.342159017055703
mp-1104103,Dy(MnAl2)4,-0.34159764026083
mp-1104134,Nd(MnAl2)4,-0.32384978224801003
mp-1104146,Er(Al2Cr)4,-0.21228912153846102
mp-1104243,Th(MnAl2)4,-0.307701863209548
mp-1104269,Er(Al2Cu)4,-0.29996773999999904
mp-1104273,Nd(Al2Fe)4,-0.40422159519230705
mp-1104319,Lu(Al2Cr)4,-0.21694293928204703
mp-1104462,Ca(Al2Fe)4,-0.34855676076923003
mp-1104474,Ce(Al2Cr)4,-0.20309196492307402
mp-1104490,Pr(Al2Cr)4,-0.18866121851282103
mp-1104537,Nd(Al2Cr)4,-0.197264363192306
mp-1104540,Tb(Al2Cr)4,-0.21093568897435902
mp-1104561,Hf(Al2Fe)4,-0.408610126923075
mp-1104719,Gd(Al2Fe)4,-0.410023256923076
mp-1104741,Tb(Al2Cu)4,-0.35005307769230604
mp-1104796,Tb(MnAl2)4,-0.341443626799293
mp-1104798,Th(Al2Cu)4,-0.281995213076914
mp-1104839,La(Al2Cr)4,-0.185800075025635
mp-1104848,Yb(Al2Cu)4,-0.33282818730769204
mp-1104873,Tm(Al2Fe)4,-0.428509419230768
mp-1104923,Eu(Al2Cu)4,-0.29434272192307703
mp-1104931,Sm(Al2Cr)4,-0.20177363730769202
mp-1104954,Ho(Al2Cu)4,-0.301560647307691
mp-1104984,Sm(Al2Fe)4,-0.415746018076922
mp-1104994,Pr(MnAl2)4,-0.3158138594916
mp-1105077,Zr(Al2Fe)4,-0.43026641307692204
mp-1216744,U(Al2Cu)4,-0.012612575384614001
mp-1220104,Np(Al2Cr)4,-0.09754828198076
mp-16486,Ce(Al2Fe)4,-0.412553496153843
mp-16487,Ce(MnAl2)4,-0.33031742628646105
mp-16498,Sm(Al2Cu)4,-0.34961203769230803
mp-20003,Ce(Al2Cu)4,-0.337407083076923
mp-20704,U(MnAl2)4,-0.23462107474801003
mp-21195,Gd(Al2Cr)4,-0.20995723284615303
mp-22385,Np(Al2Fe)4,-0.311172252980778
mp-30177,Y(Al2Cr)4,-0.21133907076923
mp-31081,Sc(MnAl2)4,-0.334804567440308
mp-31179,Ho(Al2Fe)4,-0.43020847500000803
mp-31411,Th(Al2Cr)4,-0.202975191461536
mp-3546,Tb(Al2Fe)4,-0.429442835128214
mp-3633,Er(Al2Fe)4,-0.431417930769227
mp-3701,Sc(Al2Fe)4,-0.42552436346153805
mp-4606,U(Al2Fe)4,-0.316695899230777
mp-4656,Y(Al2Fe)4,-0.42928144307693106
mp-4703,Th(Al2Fe)4,-0.408202123846154
mp-5091,Dy(Al2Fe)4,-0.42996655782052
mp-5267,Np(Al2Cu)4,-0.31081393374999805
mp-5544,U(Al2Cr)4,-0.11759277769230601
mp-569200,Eu(Al2Fe)4,-0.356285661153845
mp-7248,U(Al2Cu)4,-0.21009880000000902
mp-862763,Pr(Al2Cu)4,-0.338534726282049
mp-865864,Tm(Al2Cu)4,-0.335504194615385
mp-972121,Tm(Al2Cr)4,-0.210834441538462
mp-972569,Sm(MnAl2)4,-0.30845677205570304
mp-973553,Gd(Al2Cu)4,-0.34171711230769103
mp-974729,Nd(Al2Cu)4,-0.345021670576922
mp-976187,Pr(Al2Fe)4,-0.396776309358982
mp-977054,La(Al2Fe)4,-0.391193529615384
mp-984726,Dy(Al2Cu)4,-0.309682904743588
mp-985207,Dy(Al2Cr)4,-0.22017616607692
mp-571416,Sr14Al8Ge3,-0.3293090832
mp-1217572,TbDy3Al8,-0.5879630504166661
mp-1217691,Tb3DyAl8,-0.5898927620833351
mp-1218404,Sr3CaAl8,-0.280627102500001
mp-1223022,LaU3Al8,-0.28796955500000304
mp-1223059,La3ScAl8,-0.513624596249994
mp-1223075,La3UAl8,-0.412215175833331
mp-1226646,CeU3Al8,-0.291615778333351
mp-1227021,Ce3UAl8,-0.42057921666666603
mp-1228401,Ca3GdAl8,-0.405416758333332
mp-1228130,Al8BC5,-0.18080088712797301
mp-541187,Al8C3N4,-0.7835070003333331
mp-1214842,Al8Cr4Si3,-0.102728192319447
mp-13875,Al8(Pb3O7)3,-2.521137595328947
mp-676933,CeAl8O16,-2.4362751168
mp-1228858,Al8SiO14,-3.330202970434781
mp-1247816,Al8SiO14,-2.262427856304347
mp-1217596,TbAl8Ni3,-0.301869610555555
mp-1222497,LuAl8Ni3,-0.35055304352777705
mp-1225606,ErAl8Ni3,-0.309777451944443
mp-1194542,Ce(Al4Co)2,-0.46854093545454306
mp-1194906,La(Al4Fe)2,-0.413530206363636
mp-1200854,Sm(Al4Co)2,-0.45932410499999904
mp-1202535,Ca(Al4Ni)2,-0.383928015454544
mp-1202613,Pr(Al4Fe)2,-0.39427827265151505
mp-17871,Ca(Al4Co)2,-0.405855484545453
mp-504740,Eu(Al4Fe)2,-0.369575167045445
mp-567156,Pr(Al4Co)2,-0.452534379696969
mp-569832,Nd(Al4Co)2,-0.457473580227272
mp-607077,Ce(Al4Fe)2,-0.41851392045454205
mp-1247920,Al8(SiO6)3,-3.158794070344829
mp-772413,Al8SiO14,-3.352404316956522
mp-1185277,K8Li31Al8O32,-2.390397095586497
mp-1218123,Ta6Al8O27F,-3.336769284380953
mp-1356023,Ta6Al8O27F,1.4419241606190472
mp-1228970,Al8Zn3CoO16,-2.98165895625
mp-1208872,SmAl8SiAu4,-0.517982155000009
mp-1229020,Al8Zn3CdS16,-1.16911616875
mp-17313,Mg3BeAl8O16,-3.368773322678571
mp-554018,Mg3BeAl8O16,-3.346943954464286
mp-571315,Mg3Al8FeSi6,0.046339521944444004
mp-997586,La7YAl8O24,-3.698075044375
mp-997587,La7ScAl8O24,-3.653001103500001
mp-1227693,Be12Al8Si24O73,-3.214127621752136
mp-1217828,SrTi3Al8O19,-3.465720377580646
mp-1200432,Ca2Al8PbO15,-3.316381144711536
mp-1208229,Th2Al8Si2Au5,-0.5644704047058811
mp-1192473,U6Al8(FeSi)5,-0.06924858874999801
mp-1193401,U6Al8Fe5Si9,-0.368792054999998
mp-1225219,EuAl8SiAu4,-0.48184325321428506
mp-1223470,KNa7Al8(SiO4)8,-3.143718871373306
mp-2713850,Na6Al8Si3(S3O16)3,-2.491232869177151
mp-2714245,Na2Al8SiS11O48,-2.383370304456076
mp-2714991,Na10Al8Si5S7O48,-2.584376083499484
mp-2715647,Na14Al8Si7S5O48,-2.669227340164354
mp-1222242,MgAl8Fe3(PO5)8,-2.696438090535714
mp-1221930,Mn9Al8Fe3(SiO4)12,-2.9132005387672413
mp-1222247,Mg9Al8Fe3(SiO4)12,-3.1364561250625
mp-1222261,Mg3Al8Fe(Si5O18)2,-3.273893302844827
mp-1227888,Ca3Mg9Al8(SiO4)12,-3.2975936929375
mp-1218635,SrCa3Al8(SiO5)8,-2.712969184166668
mp-1218616,Sr3CaAl8(SiO5)8,-2.7178594365
mp-1247898,Al8P8H34N7O36F5,-2.042705538975947
mp-1267554,Al8P8H34N7O36F5,-2.044881759486151
mp-693763,Al8P8H34N7O36F5,-2.035588377853499
mp-1223700,MgAl8Fe3Si8(H2O5)8,-2.547625531513158
mp-1218664,Sr3CaAl8H24(C2O11)4,-2.1669242789772722
mp-1229326,Al8P8H22C14N4O33F2,-1.741629688732339
mp-1191778,Al9Fe2,-0.23460630045454403
mp-12003,Al9Ir2,-0.5658966736363621
mp-1645,Al9Rh2,-0.524021496818181
mp-16488,Al9Co2,-0.29702967454545304
mp-1109,Sr5Al9,-0.283871463571427
mp-1212295,Mn4Al9,-0.23268412083775403
mp-1216193,Y(Al3Fe)3,-0.385723579999998
mp-1216881,U(Al3Fe)3,-0.27227149923076605
mp-1219228,Sm(Al3Fe)3,-0.380259147307692
mp-1227419,Ca(MnAl3)3,-0.254768511061007
mp-1208235,Ti4(NbAl3)3,-0.404784685341667
mp-1217682,Tb2HfAl9,-0.45311818583333
mp-1217690,Tb2ZrAl9,-0.482193169583332
mp-1019803,KAl9O14,-3.354464808010416
mp-568693,Gd(Al3Ni)3,-0.524354092692306
mp-571253,Er(Al3Ni)3,-0.524913663846153
mp-1217391,Ti13Al9Co8,-0.500129107222221
mp-1228507,Ba2(CaAl3)3,-0.288931049285713
mp-1216111,YEr2Al9,-0.462401728055553
mp-1103130,SrAl9Ni2,-0.372340575833336
mp-11350,CaAl9Co2,-0.381182389166666
mp-12549,BaAl9Ni2,-0.36106827750000003
mp-16483,BaAl9Fe2,-0.316697639999999
mp-16491,SrAl9Co2,-0.40754275583333405
mp-21407,EuAl9Co2,-0.41566064624999804
mp-1214838,Al9Cr3Si,-0.135507694230768
mp-15819,Mn3Al9Si,-0.27036606913793004
mp-3479,CaAl9Ni,-0.240652199999999
mp-1228791,Ba36Al9Sn23,-0.571612491397058
mp-11486,Y2(Al3Co)3,-0.553294676071428
mp-1207707,Y2(Al3Ir)3,-0.8650310153571431
mp-1207711,Y2(Al3Rh)3,-0.830945849285712
mp-1207714,Y2(Al3Pd)3,-0.730812203928573