material_id,formula,formation_energy_per_atom
mp-728393,K2Zr2Cu(OF2)6,-2.102683562369565
mp-729015,CrCuPPb2O9,-1.820988709795918
mp-733866,CuPH6NO5,-1.386585321938775
mp-769159,LiCuPH2O5,-1.872863196547619
mp-776424,Na2LiCuP2O7,-2.349577459836743
mp-850027,CuH12N2(OF2)2,-1.174104229404761
mp-1101254,V3Cr2Cu(PO4)6,-2.455098472162698
mp-1101335,Ti3Cr2Cu(PO4)6,-2.708011029662697
mp-677164,CuAs2Pb6Cl7O6,-1.5521065479545442
mp-757692,Fe3Co2Cu(PO4)6,-2.112161059662698
mp-765089,Ti3V2Cu(PO4)6,-2.770317125218253
mp-767442,Fe3CuNi2(PO4)6,-2.10848392827381
mp-767774,Mn2Fe3Cu(PO4)6,-2.237974545103311
mp-772496,Mn3CuNi2(PO4)6,-2.170776597823618
mp-774830,V3Fe2Cu(PO4)6,-2.354684144107143
mp-774936,Ti3CuNi2(PO4)6,-2.641467711607142
mp-775589,Ti3CuSn2(PO4)6,-2.69812474438492
mp-776003,Mn2V3Cu(PO4)6,-2.4918155573255323
mp-776010,Cr2Fe3Cu(PO4)6,-2.290529923551586
mp-776120,Mn3Cr2Cu(PO4)6,-2.304383790601396
mp-777685,Ti3Fe2Cu(PO4)6,-2.692280293829365
mp-777902,Ti3Mn2Cu(PO4)6,-2.7628454728810903
mp-721943,CuSiH12(OF)6,-1.775194791153846
mp-1045638,Ba2CaCuBi2F14,-3.25022223075
mp-1045646,Ba2CaCuSb2F14,-3.2174847855
mp-1045711,Ba2ZnCuSb2F14,-2.97266503675
mp-1045718,Ba2ZnCuAg2F14,-2.437900280666666
mp-1045827,Ba2ZnFe2CuF14,-2.972084659250001
mp-1045836,Ba2MgFe2CuF14,-3.15083888825
mp-1045850,Ba2CaMn2CuF14,-3.302105178293104
mp-1045862,Ba2ZnCr2CuF14,-3.1451034445
mp-1045867,Ba2Mn2ZnCuF14,-3.024730312043103
mp-1045870,Ba2MgCr2CuF14,-3.316671958249999
mp-1045884,Ba2CaCuMo2F14,-3.271405586249999
mp-1045901,Ba2MgCuMo2F14,-3.180903211
mp-1189612,NaCuSO4F,-1.892037640484913
mp-1195676,LiCuSO4F,-1.9235822532291662
mp-1195736,CuH11C6NO5,-0.684776647656249
mp-1196333,CuH28C10(N3Cl2)2,-0.327054321632653
mp-1198480,CuH12C6(S2N)2,-0.1858203622
mp-1198565,CuPb5Se4(ClO3)4,-1.4259511122836521
mp-1202669,Li2CuB4(PbO5)2,-2.336317672280689
mp-1203708,KHo2Cu(MoO4)4,-2.391861260927083
mp-1211416,KMg3Cu(AsO4)3,-2.191541717487498
mp-1211434,KMg3V3CuO12,-2.4945249893624992
mp-1211719,KCo3Cu(AsO4)3,-1.4089886779875
mp-1214581,BaNd2Cu(MoO4)4,-2.469173629375001
mp-1214730,Ba2CaGa2CuF14,-3.378655308499961
mp-1215121,BaCuH12(C2O7)2,-1.480460394765624
mp-1358843,Ba2MgCo2CuF14,-2.9311504412500002
mp-1359492,Ba2ZnCuBi2F14,-3.00780762375
mp-1360674,Ba2MgTi2CuF14,-3.586525925583333
mp-1361554,Ba2MgCuBi2F14,-3.17891657375
mp-1379905,Ba2V2ZnCuF14,-3.205613428249999
mp-1380678,Ba2CaTi2CuF14,-3.688344636833334
mp-17711,BaNa2V2CuO8,-2.339314298411329
mp-581167,Ba2CaV2CuF14,-3.47870105425
mp-581641,Ba2CaFe2CuF14,-3.2472014335
mp-582663,Ba2CaCr2CuF14,-3.417455777250023
mp-644277,Fe2CuH4(OF4)2,-2.014881557058824
mp-697008,CuH12N2(OF2)2,-1.229964911190475
mp-698120,KGd2Cu(MoO4)4,-2.3789512198854172
mp-698318,CuSi2H18C9O2,-0.27619824335937604
mp-698361,CuH36C8(N5O4)2,-0.549277633571428
mp-698401,CuH11C5NO6,-0.763349427864582
mp-698413,CuH8C2NCl3,-0.512325451
mp-699636,KTb2Cu(MoO4)4,-2.392738386274306
mp-707973,CuH22C8N10O,-0.27973819898809604
mp-709019,Ca2CuH6(CO2)6,-1.557303864166665
mp-727093,CuC9S2NF10,-0.5680105006521731
mp-1199050,CuH20N6OF2,-0.707644125777778
mp-1197298,CuAs12P4S12Cl,-0.412492535452381
mp-1197719,CuAs12P4S12Br,-0.40177438878571303
mp-1076132,Ca7MgCo7CuO24,-1.826713695375
mp-1099832,La7SmMn7CuO24,-2.847827810137931
mp-1226149,Cr8Fe2CuNiS16,-0.868268096785713
mp-1226359,Cr8FeCo2CuS16,-0.8551272707142841
mp-1235297,Sr2LiCuBrO2,-1.834377455476191
mp-1235608,Sr2LiCuBrO2,-1.8872332097619051
mp-1043730,CaTiCu(PO4)3,-2.708056747625661
mp-1043770,MgTiCu(PO4)3,-2.623844494570106
mp-1043819,TiZnCu(PO4)3,-2.438622190681217
mp-1218789,Sr2La3Fe4CuO15,-2.4877576458
mp-733590,TlCuHCO4,-1.346683533906251
mp-769201,LiCuHCO4,-1.562202855989583
mp-1192713,CuH2CS2N,-0.30037671249999903
mp-1195252,SrVCuHO5,-2.195368502916666
mp-1195955,CuH7C3NO6,-1.005949585347222
mp-1213971,CaVCuHO5,-2.181649259027778
mp-1232363,CuH5C6SO,-0.196570815089284
mp-510729,CaCuAsHO5,-1.944732065416666
mp-556604,BaCuPClO4,-2.502249712142857
mp-601396,CuH10C2(N2O5)2,-0.833213256203703
mp-775900,NaLiCu(PO3)3,-2.369731837909415
mp-608162,K2CuPb(NO2)6,-0.953360829749999
mp-1203798,CuP2H18C6Cl,-0.253879651626275
mp-1045695,Ba2MgCuSb2F14,-3.14349442925
mp-1045802,Ba2MgCuAg2F14,-2.609720167166666
mp-1046153,SrMgCu(PO4)2,-2.748734684945055
mp-1046155,SrZnCu(PO4)2,-2.52207390032967
mp-1046249,SrCaCu(PO4)2,-2.837925794175823
mp-1104343,FeCuAs2PbO10,-1.334808718333334
mp-1173257,Sr2Nd2MnCuO8,-2.821500970209359
mp-1190203,Lu2CuTe2(SO7)2,-2.300087497698412
mp-1190208,Y2CuTe2(SO7)2,-2.270457513730158
mp-1190344,Er2CuTe2(SO7)2,-2.283921263730158
mp-1190351,Tm2CuTe2(SO7)2,-2.285341291825396
mp-1190393,Dy2CuTe2(SO7)2,-2.283538695793649
mp-1190435,Nd2CuTe2(SO7)2,-2.268548014444443
mp-1190440,Ho2CuTe2(SO7)2,-2.282444884206348
mp-1190474,Tb2CuTe2(SO7)2,-2.283999654365079
mp-1190515,Gd2CuTe2(SO7)2,-2.266357448492062
mp-1190652,Eu2CuTe2(SO7)2,-2.102865904206349
mp-1191497,Sr2CuH2(SeO3)4,-1.732928559136905
mp-1191835,CuH10Se2(NO5)2,-0.8867713986875001
mp-1192156,CuC4S4(NO6)2,-0.316919168260868
mp-1192702,BaV2Cu(AgO4)2,-1.9107310845238081
mp-1194046,CuH6Pb4(SO7)2,-1.5669542786111101
mp-1196858,Rb2CuP4(HO2)8,-2.037150761082949
mp-1196993,Ga6CuSb7(TeCl3)8,-1.167508459746376
mp-1197753,CuNiH16(CN)8,-0.125662999411764
mp-1200376,CuH12C6(Br3N2)2,-0.345095281724139
mp-1201127,CuH32W6(Cl6O11)2,-1.226552555753425
mp-1201220,CuH9C5NO5,-0.6981311914880951
mp-1201449,CuH38C12(S4O7)2,-0.5697047202397261
mp-1203102,V2CuH18(N3O5)2,-0.699908698175676
mp-1204438,Cr6CuSi2(Pb5O17)2,-1.797600917547169
mp-1208124,TlCuAs2PbS5,-0.523761019583333
mp-1213332,Fe6CuP4(H4O7)4,-1.7589186423376622
mp-1223163,La4ZnCu(RhO6)2,-2.5756132635
mp-1225164,FeCuBi2(AsO6)2,-1.432446741944444
mp-1229150,Co3CuH56(SO11)4,-1.365792348981481
mp-1234027,CaHo2Cu(SiO3)4,-3.095411892
mp-1235309,LiHo2Cu(SiO3)4,-3.164641270666666
mp-1341934,SrMgCu(PO4)2,0.9309764546703291
mp-1345647,SrZnCu(PO4)2,1.086480735054945
mp-1379366,Sr4La4Mn7CuO24,-2.190482698637931
mp-1414227,Na2CuH4(C2O5)2,-1.114204367512315
mp-1419857,FeCuAs2PbO10,-0.131617854333333
mp-2218562,NdMgCu(WO4)2,-2.28456730326923
mp-2228485,MgZn2Cu(AsO4)2,-1.580037291428571
mp-2229984,Tb2MgCu(GeO3)4,-2.419312151916666
mp-2230096,Er2MgCu(GeO3)4,-2.42352377475
mp-2230345,Ho2MgCu(GeO3)4,-2.42045605525
mp-2232672,Na4MgCu(AsO4)2,-1.837499514094827
mp-2233440,YMgCu(WO4)2,-2.293441231153846
mp-2240053,Sr2MgCuMoO6,-2.4367437904545453
mp-2241339,Ba2MgCu(PO4)2,-2.6455641960204073
mp-25405,LiCuPO4F,-2.155038342872023
mp-543047,KNaCu(Si2O5)2,-2.799468314919371
mp-554419,GdCuSe2ClO6,-1.838754899517045
mp-555656,CuC2S2(OF)6,-1.685296834411764
mp-558663,Ca2CuTe4(ClO5)2,-1.9210221466666662
mp-568816,K2FeCu(CN)6,-0.11721591903125
mp-603245,Rb2Cr4Cu(HO4)4,-1.5734113525925921
mp-603257,Cs2Cr4Cu(HO4)4,-1.575264359418901
mp-644028,Fe2CuAs2(HO5)2,-1.460258125147058
mp-695966,CuP3H12NO13,-1.313599341130952
mp-696152,CuSnH12(NO3)2,-1.04057751090909
mp-697523,CsCuP3H8O13,-1.8792977668686062
mp-698276,CuH11C4(NO5)2,-1.061008693705358
mp-698313,Rb2CuH4(C2O5)2,-1.549146662857143
mp-698414,CuH8C2NCl3,-0.512988568166666
mp-698710,Sr4La4Mn7CuO24,-2.68198278763793
mp-707247,Na4CuP6(H4O11)2,-2.142024973253033
mp-720337,Na6CuP4(H13O15)2,-1.141563258646975
mp-722243,Na2CuH4(C2O5)2,-1.532474577988506
mp-722906,Na3CuB8H17O23,-1.955508190456178
mp-738675,CuH9C4S4N,-0.17675091151315803
mp-752783,Ca2CuB2(HO)12,-1.832916325632183
mp-753122,Sr2CuH2(SeO3)4,-1.656260249136905
mp-753954,CdCuH8(ClO)4,-1.2251860577777771
mp-759269,Fe2CuAs2(HO5)2,-1.4216564904411761
mp-773601,Li2CuP3H8O13,-1.88335541909612
mp-849277,Li2CuP3(HO5)2,-2.203941636560846
mp-938380,Sr4La4Mn7CuO24,-1.439623503137931
mp-939375,LiCuPO4F,2.563232503377976
mp-939487,CuSnH12(NO3)2,-0.31435641636363504
mp-1192663,Tl2CuPb(NO2)6,-0.7919466962121221
mp-19732,Cs2CuPb(NO2)6,-0.9937911063322881
mp-19863,K2CuPb(NO2)6,-0.9823658592954541
mp-22515,Rb2CuPb(NO2)6,-0.926130674772727
mp-1226331,Cr4FeCu(SeS)4,-0.788362952098214
mp-1227852,BaLaTiCuO6,-2.837867513833333
mp-1516265,SrCaCuBiO6,-1.903751758
mp-1517598,SrEuCuBiO6,-1.9915014515000011
mp-1519172,BaSrCuBiO6,-1.951439792
mp-1519829,BaLaTiCuO6,-1.9011115578333322
mp-1521412,BaCaCuBiO6,-1.891478206
mp-1521471,NaHfCuWO6,-2.347311471137931
mp-1522686,KLaCuWO6,-2.2915268112250002
mp-20140,Rb2FeCu(CN)6,-0.10842002593749901
mp-20484,Li2FeCu(CN)6,0.13491195020833202
mp-21259,Na2FeCu(CN)6,0.047175630452586007
mp-601952,K2FeCu(CN)6,-0.081476827156249
mp-23857,CoCuH18N6Cl5,-0.6804250103225811
mp-24013,CrCuH18N6Cl5,-0.726384884516129
mp-24429,CrCuH18Br5N6,-0.655905799919355
mp-1178803,Zn2CuC2NCl6,-0.762296625833334
mp-1222940,LaNb2CuClO7,-2.798578449999999
mp-1308658,BaYMnCuO5,-2.53389521032567
mp-2223136,Sr2MgTlCuO5,-1.981573939333333
mp-1192353,Sr2FeCu(PbO3)2,-1.986591288333333
mp-555901,KCuCO3F,-1.890473808178571
mp-755641,LiCuCO3F,-1.824254246904762
mp-1076688,Sr3CaCo3CuO12,-1.8977733792499991
mp-1201121,CuTePb3CO10,-1.434946764166666
mp-1191264,Sr2FeCu(PbO3)2,-1.991029511249999
mp-1194841,SrCuH3ClO3,-1.704492691898148
mp-510292,CuPH6NO5,-1.360495210510204
mp-1200299,NdCuPbC3O11,-1.8101622623529412
mp-1200641,CuH9C4(NO2)3,-0.8598873308152181
mp-1213613,CuH2CN2Cl,-0.46815766202380904
mp-1076741,Sr6Ca2Co7CuO24,-1.9246093545
mp-1099600,Sr2Ca6Co7CuO24,-1.9089252537499992
mp-1218246,SrLa3MnCuO8,-2.990591434137932
mp-1218344,Sr3LaCuRuO8,-2.5566959225
mp-1218490,Sr3NdCuRuO8,-2.528084927678571
mp-25466,LiCuPCO7,-1.842715391634198
mp-768599,LiCuCSO7,-1.6676250568939381
mp-770935,Na3CuPCO7,-2.108676464906214
mp-772118,NaCuCSO7,-1.677979343079937
mp-772755,Li3CuPCO7,-2.198118876510989
mp-1214671,Ba3CaCuSi6O17,-3.199971707321429
mp-1222666,LiMn2Cu(RuO4)2,-1.64010487494253
mp-1222686,LiCuRu2(RhO4)2,-1.30284280595238
mp-1224227,In2CuAg(SnS4)2,-0.697559239642856
mp-1228071,BaMgV2CuO8,-2.478418851153845
mp-1214708,Ba2ErZn2CuO7,-2.3882173080769222
mp-1214712,Ba2ErCuNi2O7,-2.215805484230769
mp-1516741,PrEuFeCuO6,2.320763722083333
mp-1176382,Na2LiCuP2O7,-2.356556328490589
mp-1177805,Li2V4CuNiO12,-2.102731415333334
mp-1223070,LaNb2CuBrO7,-2.778371694166667
mp-1224053,In2CuAg(TeSe)2,-0.441075092265624
mp-1224952,Ga2CuAg(TeSe)2,-0.42447182851562404
mp-1354389,Ba2CaCo2CuF14,-3.0268118375
mp-1570812,Li2V4CrCuO12,-2.254647004333333
mp-2218239,Ba2MgTl2CuO6,-1.82427738013889
mp-2223616,MgCuH4(OF)2,-1.445777316
mp-683957,Nd4CuTe5(ClO5)3,-2.381394771011904
mp-755828,Li2V4CrCuO12,-2.221355050833334
mp-759398,Li2V2Cu(PO4)3,-2.483730046029762
mp-761114,Li2Fe2Cu(PO4)3,-2.2399851962797612
mp-774824,Li2MnV4CuO12,-2.203644991729883
mp-695277,BaLaTiCuO6,-2.9242881313333333
mp-1187205,Sr2FeCu(PbO3)2,-1.989836127916666
mp-1198693,LaNb2CuClO7,-2.81757049875
mp-1201335,LaNb2CuBrO7,-2.7863151875
mp-680388,ZnCuTeCl2O3,-1.372633904270833
mp-556030,BaCuCO3F2,-2.449935235624999
mp-510608,ZnCuAsHO5,-1.488635239861111
mp-1099844,Sr2Ca2Co3CuO12,-1.8886465735
mp-1177267,Li4V3Cu(PO4)4,-2.537826452568027
mp-1177451,Li4Cr3Cu(PO4)4,-2.479182574710885
mp-1177485,Li4Fe3Cu(PO4)4,-2.396204517568027
mp-1222146,MgIn2Ga2CuO8,-2.081686441666666
mp-1226214,Co7CuAs4(HO5)4,-1.46362828513889
mp-753889,Li4CuNi3(PO4)4,-2.314919111139456
mp-757721,Li4Mn3Cu(PO4)4,-2.518219476274924
mp-640925,CuHgC4(SN)4,0.051822013392857004
mp-1200514,CuB2P2(HO2)6,-2.009843115983436
mp-556951,CuH3C2NO4,-1.05215962625
mp-600172,CuH12C5S4N,-0.199600002554348
mp-707169,CuH4C3ClO2,-0.67139264090909
mp-759393,CuH16C4(N5O)2,-0.46195466363636406
mp-764827,Fe2CuAs2(HO5)2,-1.241231405882353
mp-1043491,ZnCuNiP2O9,-1.8664638108418372
mp-1096963,CuH6CI3N,-0.369957541666666
mp-1182316,CuH9C4NO6,-0.6103686548214281
mp-1193701,CuH2CBrN2,-0.25953776357142905
mp-1194211,CuH2CN2Cl,0.12109406642857001
mp-1195165,CdCuAsHO5,-1.404060399027778
mp-1195300,Ba2V2CuClO8,-2.448424235714285
mp-1195498,Ba2V2CuBrO8,-2.415584516607143
mp-1196682,CuH12Pt(CN2)4,-0.22199687048076902
mp-1202966,CuAs2H3OF13,-2.121297673562499
mp-1213674,CuHS(NO)4,-0.526997752386364
mp-1214108,CoCuSe2(ClO5)2,-0.399843042167969
mp-1214674,Ba2Tm2CuPtO8,-2.702201681607143
mp-1214783,Ba2Ho2CuPtO8,-2.68361437642857
mp-1214824,Ba2Er2CuPtO8,-2.692528628749999
mp-1214855,Ba2Lu2CuPtO8,-2.7082785852380953
mp-504966,Ba2Y2CuPtO8,-2.653220258035713
mp-505289,VCuHPbO5,-1.7219994359722222
mp-559474,La5Ti2CuS5O7,-3.078613080958334
mp-560601,K2CuS(ClO2)2,-1.889739489699999
mp-654900,CuH9C4NO6,-0.36786444517857103
mp-1211692,KCaEr2CuS5,-2.016900431974998
mp-1228518,Ba2La4CuPtO10,-3.018366510555557
mp-1229306,BaLaSmCuO5,-3.000971456111112
mp-12145,K2BaCu(NO2)6,-1.164849560204545
mp-12161,K2SrCu(NO2)6,-1.171304879295454
mp-7680,K2CaCu(NO2)6,-1.162642252477273
mp-1040903,CaLaCrCuO6,-2.349197335999998
mp-1043854,LaMgFeCuO6,-2.154231970499999
mp-1043903,CaLaFeCuO6,-2.3123060945000002
mp-1044050,LaZnFeCuO6,-1.7093674495000002
mp-1048850,LaMgCrCuO6,-2.201216096
mp-1049069,LaZnCrCuO6,-1.9400548485
mp-1173178,SrLaCuRuO6,-2.3042750165
mp-1218225,SrLaCuSbO6,-2.527859491000001
mp-729018,V2CuH6(NO3)2,-1.3144902672058811
mp-1227327,CaMn2V4CuO12,-2.335109078293103
mp-2222836,Ba2MgCuTeO6,-2.067828271969695
mp-2227606,MgCuH4(OF)2,-1.391567711999999
mp-677489,CsTiCuOF5,-2.927818403109834
mp-560551,K4V5CuClO15,-2.273027291692309
mp-756583,Li4V5CuClO15,-2.20505072801282
mp-1076171,La5Sm3Co7CuO24,-2.463621831750001
mp-1076219,La4Sm4Co7CuO24,-2.448884304500001
mp-1099611,Sr4Ca4Co7CuO24,-1.917980434
mp-1173222,Sr3LaCuRuO8,-2.5553334553571423
mp-1218089,SrPrGaCuO5,-2.5989555165740743
mp-1218135,SrNdGaCuO5,-2.60245074
mp-1218226,SrLaGaCuO5,-2.643832134722222
mp-1227198,CaLaGaCuO5,-2.650034081944445
mp-1235294,Sr2LiCuBrO2,-1.887433465476191
mp-2227665,Sr2MgCu(BrO)2,-1.740817670624999
mp-2228499,Ba2MgCu(PO4)2,-2.685000361020407
mp-760808,Li5V3Cu(PO4)4,-2.493456737594417
mp-1200812,Na5CuS4(NO6)2,-1.510059844662355
mp-1189777,CuC8S4N4Cl,0.827106546831593
mp-1223732,InGaCuAgSe4,-0.5480250720312511
mp-1224000,InGaCuAgTe4,-0.355886881249993
mp-41057,BaLaCuRuO6,-2.2653514965
mp-1218483,Sr4ZnCu(WO6)2,-2.570866036500001
mp-1191142,CuBH4ClO4,-1.515100974015151
mp-1193717,TiCuNO4F7,-0.9000349130952381
mp-510226,U2CuAs2(H4O5)4,-1.7887906197560972
mp-699483,U2CuP2(H4O5)4,-1.9729824955923352
mp-1045649,Ba2CaCuAg2F14,-2.698657741166666
mp-1173145,SrPrGaCuO5,-2.616728344907407
mp-1173173,SrLaGaCuO5,-2.6534143102777783
mp-1176393,Na2LiCu(PO3)4,-2.461377702233169
mp-653450,CuAg7As4ClO14,-1.099733378024691
mp-699660,KHo2Cu(MoO4)4,-2.39138184009375
mp-769204,Li7CuAs4ClO14,-1.932644943456789
mp-1199641,Cs2V2Cu(ClO3)2,-2.118779700235411
mp-1042137,BaYCuSnO5,-2.488210862222223
mp-1042151,BaYCuSbO5,-2.372467702777778
mp-1042153,BaYCuAgO5,-2.048854301851852
mp-1042214,BaYCuBiO5,-2.368437550555557
mp-1042471,BaYCoCuO5,-2.328158312777779
mp-1042473,BaYMnCuO5,-2.531373318659004
mp-1042475,BaYCrCuO5,-2.602364700555556
mp-1042479,BaYCuWO5,-2.343405843888888
mp-1042482,BaYVCuO5,-2.656487152777777
mp-1042500,BaYCuMoO5,-2.407658761666667
mp-1048567,Sr2CoCuSO3,-1.961535510312499
mp-1147772,BaNaCuBrO2,-1.8619840410632191
mp-1205946,BaTmFeCuO5,-2.490787322777779
mp-1206136,BaPrFeCuO5,-2.417477052962962
mp-1206575,BaGdFeCuO5,-1.8657010961111111
mp-1207068,BaDyFeCuO5,-2.480258880740739
mp-1214324,BaSmFeCuO5,-2.452790783333333
mp-1218170,SrLaTlCuO5,-2.289667675925927
mp-1227751,BaSmCoCuO6,-2.1293637245
mp-1228144,BaEuFeCuO5,-2.258450407777778
mp-1232325,BaNaCuClO2,-1.935399973563218
mp-1389826,BaYTiCuO5,-2.985446222037036
mp-1404372,BaYCuNiO5,-2.260251551666666
mp-505589,BaYFeCuO5,-2.463047101666666
mp-611378,BaLuFeCuO5,-2.4898480401851852
mp-643378,CuH4Pb2(ClO2)2,-1.325931599615384
mp-1223691,La3ZnCuRh2PbO12,-2.249769505249999
mp-2228370,MgFe2CuAs2(HO5)2,-1.6117594795833332
mp-2228375,MgFe2CuAs2(HO5)2,-1.5347266412499998
mp-2232745,MgFeCuAs2PbO10,-1.719510640625
mp-775323,Li4Mn3CuNi2(PO4)6,-2.329038943874589
mp-1228200,Ba2Y2FeCo2CuO10,-2.405165368333333
mp-1232413,Na3CuP2H6NO13,-1.793144429266294
mp-775936,Na3LiCuPCO7,-2.114544749793865
mp-776432,Na2LiCuPCO7,-2.145280560441139
mp-690769,CuP2H12N2(O4F)2,-1.4863378527513231
mp-1197502,CuH36S8I2(N3O4)3,-0.8246716286029401
mp-2239929,Sr2MgCuC(NO)2,-1.03066939
mp-1182659,CuH7C3SN3O4,-0.5077710859868411
mp-1196158,CuP3H16C3NO12,-1.219622361498016
mp-1196734,CuH8C2S2N4Cl,-0.459682140069444
mp-1198264,CuH14C2N10(ClO3)2,-0.5952840333571431
mp-1198838,CuH9C3N(ClO)2,-0.6217142439583331
mp-1199239,CuP2H7C2NO6,-1.168554630554512
mp-1199298,CuH6C3S(BrN)3,-0.28120836823529305
mp-1202524,K2CuH14C4(N3O4)2,-0.9921232724857151
mp-1203632,Na2V2CuH4(OF)6,-2.167060088464695
mp-1226404,CuSiH18C7S3I,-0.212632069758065
mp-561308,CuH14C3NCl3O2,-0.6324490579166671
mp-569292,ZrCuH8C2NCl6,-0.9607196297368411
mp-696200,CuH20C2S3(NO)8,-0.7070208604761911
mp-705524,CuH7C3SN3O4,-0.465636788092104
mp-746580,Y2CuH5S2O12F,-2.044361942336955
mp-769075,Li2CuH14C4(N3O4)2,-0.961566396404763
mp-773133,K3CuB2P4H3O17,-2.409463520996826
mp-1197759,CuAs2H6C2IO2,-0.511778557410715
mp-24145,CuP2H8CN2O5,-0.967498611278195
mp-1180020,NaMn3CuH24(SO6)4,-1.465584696231095
mp-1197282,CuSn3H27C9NCl,-0.133097787708332
mp-1180606,Na4CuP6H22(N3O11)2,-1.474277373784827
mp-1190989,CuAu2C4N4(Cl2O3)2,0.038721749523809
mp-1196314,CuH24C9S3IN6,-0.256267619034091
mp-1198893,CuH16C6S4(NO)6,-0.36812705961538406
mp-1199348,CuH44C12N8(ClO5)2,-0.52496230590909
mp-1202454,Rb4Fe8CuH6(Se8O25)2,-1.456121522058823
mp-1351567,CuH44C12N8(ClO5)2,1.496426741493506
mp-2229247,MgCuC2S2(OF)6,-1.514013772222222
mp-556725,CuH8C2Br3NO,-0.577223075
mp-696290,CuH8C4N8(ClO)2,-0.20093520120000102
mp-698396,CuH4C2NCl3O,-0.278685755416666
mp-708015,Na2CuH20C12(N2O3)6,-1.051149779350132
mp-721789,CuH18C4N10(ClO)2,-0.549836889391892
mp-2219163,LaMgTa2CuClO7,-2.8859206876666663
mp-2222935,BaYMgCuAgO5,-1.961978831166666
mp-2224210,BaYMgCuNiO5,-2.088969620999999
mp-2224832,MgCuH4Pb2(ClO2)2,-1.306145590714285
mp-2226976,BaYMgCuNiO5,-2.089842912
mp-2228066,LaMgNb2CuClO7,-2.7721906180769222
mp-2228249,BaYMgCoCuO5,-2.086802572
mp-2240386,BaYMgMnCuO5,-2.248254346793103
mp-2240651,BaYMgFeCuO5,-2.158699045999999
mp-2242117,BaYMgCrCuO5,-2.242566846
mp-1223573,KBaV2CuClO7,-2.33677071478846
mp-1221349,Na3Zn2CuH8S4O17,-1.5131357032610842
mp-1221479,Na3Mn2CuH10S4O17,-1.623960138445945
mp-1221835,Na3Co2CuH8S4O17,-1.464732091118227
mp-1225031,KRbCuH12(SeO7)2,-1.352435637401209
mp-1226113,CuH18PdC4N4O11,-1.006284080705129
mp-1226397,CuH16PtC4N4O11,-0.9042858374324331
mp-2240418,BaYMgTiCuO5,-2.597919226333333
mp-2240586,BaYMgMnCuO5,-2.340742475793102
mp-2242141,BaYMgCrCuO5,-2.344295948
mp-774723,CuH12C3SN6O7,-0.8750415245000001
mp-1199816,CuH12CN6Cl4O,-0.56218966095
mp-721604,CuH4C2S2N2Cl,-0.3850210209375
mp-1203696,Na3CuPHClO5,-1.942500755002565
mp-1203898,CuH4C2S2(NO)2,-0.49836677134615404
mp-1205271,Na2CuP4H18N4O15,-1.455380244632501
mp-707509,CuH6Se2NClO6,-1.02335057571691
mp-729033,MnCuH10Se2(ClO5)2,-1.264149190293021
mp-766026,RbCuSb2H2Se4O,-0.8291724635795461
mp-2222927,BaYMgFeCuO5,-2.27998182
mp-2240507,Sr2MgCuAg2(SO)2,-1.419999321333332
mp-2232061,Ba4NaMgCu(CO5)2,-2.2724839319147
mp-559978,CuAs2S8N8(OF7)4,-1.465799948529412
mp-1197738,CuH12C3S3BrN6,-0.42027625947115205
mp-1199396,CuH12C3S3N6Cl,-0.437138275240383
mp-1199530,CuH12C3S3IN6,-0.39518612855769203
mp-1228046,BaFeCuPb2ClO5,-1.760717300454545
mp-2217420,BaYMgCrCuO5,-2.161094644
mp-2218929,LaMgTa2CuClO7,-2.783478507666667
mp-2222848,BaYMgCoCuO5,-2.026740941999999
mp-2222863,BaYMgCuAgO5,-2.019317963166666
mp-2222919,BaYMgFeCuO5,-2.123345345999999
mp-2223891,BaYMgMnCuO5,-2.203367935793103
mp-2227680,LaMgNb2CuClO7,-2.681062166538462
mp-2239848,BaYMgTiCuO5,-2.3834818713333332
mp-2240198,BaYMgCoCuO5,-2.118699500999999
mp-2242083,BaYMgCuBiO5,-2.321633030000001
mp-1196726,CuH14C3S3N6ClO,-0.518234119568966
mp-1195164,CuBP4H24C8(SF)4,-0.610716915603002
mp-1198405,NaCuPH8C2SO8,-1.2742292455010071
mp-1195565,V2CuH14C2N2(OF2)4,-1.473304030833333
mp-706528,CuH9CSN4Cl3O,-0.279440440687499
mp-721086,Li2CuP6H20C2(N3O11)2,-1.569996882703793
mp-728315,CuH9CSN4Cl3O,0.3116941425625
mp-1213094,KNaCuP4H18N4O15,-1.460819375106835
mp-1201766,NaCuH28CS6(N2O7)2,-0.9757985890250791
mp-674831,Cu2S,-0.10112939690972
mp-1225993,Cu2S,-0.150157121354165
mp-2014814,Cu2S,-0.13952935927083301