material_id,formula,formation_energy_per_atom
mp-1219956,Pr4AlFe33,0.034246146666668004
mp-1228405,Ba2AlGa3,-0.39979160208333303
mp-1228416,Ba2AlIn3,-0.401642341666666
mp-1264535,Al(MoS2)12,-0.782854547157657
mp-558088,AlPO4,-3.095023691236772
mp-626497,Al(HO)3,-2.023045039107142
mp-765647,AlVO3,-2.8918167545
mp-852009,NbAlO4,-3.175142926249999
mp-7848,AlPO4,-3.120438762440476
mp-7849,AlAsO4,-2.443003532916666
mp-1256151,Zr5AlNi4,-0.45956875950000003
mp-637263,Zr5AlNi4,-0.460198583999999
mp-1201513,K3AlF6,-3.420461138174996
mp-1200608,SrAlF5,-4.043781519285714
mp-1202507,EuAlF5,-3.971933438482144
mp-1211149,LiAlH2,0.10854780083333102
mp-1248448,Al(FeO2)2,-1.835487038571428
mp-1252148,Al(CuO2)2,-1.618746965714285
mp-1258376,Mn2AlO4,-2.100926048694582
mp-1395354,Ti2AlO4,-2.834118973095237
mp-1406186,Al(NiO2)2,-1.516698897142855
mp-23704,NaAlH4,-0.21267999916666602
mp-644486,KAlH4,-0.271167673125
mp-976291,LiAlH4,-0.20980101277777702
mp-1262087,Al(BiO3)3,-1.5790000961538482
mp-35893,KAlO,-1.668860953249999
mp-540549,Al(PO3)3,-2.820363675558607
mp-12807,KAlO2,-2.9019306004062493
mp-3427,LiAlO2,-3.082882981458333
mp-1229099,Al(SiO3)2,-3.014742290555555
mp-1217290,Th4AlGe,-0.442802484999996
mp-1224329,Hf4AlSi,-0.558817250833333
mp-1227997,AlSi3W2,-0.264832075833335
mp-38994,NaAlSi4,0.29660068583333105
mp-1041643,AlSb(WO4)2,-2.162271753333333
mp-1041713,AlCr(WO4)2,-2.323592272499999
mp-1041835,AlSn(WO4)2,-2.178441630416666
mp-1042600,TaAl(WO4)2,-2.486431760611111
mp-1047560,AlFe(WO4)2,-2.225567947083334
mp-1047580,AlMo(WO4)2,-2.217203130833333
mp-1047724,AlCo(WO4)2,-2.175592248333333
mp-1047748,TiAl(WO4)2,-2.5138364119444443
mp-1048504,Ba2AlFe3O7,-2.185547407307691
mp-1190355,LiAlSi2O7,-2.774243257121212
mp-1191091,LiAlSi2O7,-2.638683274393939
mp-1219548,RbTi3AlO8,-3.317280524423077
mp-1219794,Rb5Al(MoO4)4,-2.157556949134616
mp-1220943,NaAlSiO4,-3.133163484125615
mp-1221220,Na4AlFe3O8,-2.044548466594827
mp-1221314,Na3AlSiTe4,-0.6045234512005101
mp-1221447,Na2AlGe7O16,-2.196356539529177
mp-1223316,KTi3AlO8,-3.32467413901923
mp-1223541,KAlSiO4,-3.183537512464286
mp-1225908,CsTi3AlO8,-3.275140202281167
mp-1229179,AlIn3(CuSe2)4,-0.60010793765625
mp-1234040,MgAl(Bi3O5)4,-1.7223338822058811
mp-1237086,Na3AlSiTe4,-0.588952610089399
mp-1247593,Ca4Mn3AlO10,-2.7164616265301733
mp-1247717,Ca4Mn3AlO11,-2.701444852897006
mp-1251151,Ca2AlSnO5,-2.88240697
mp-1253719,Ba2AlFe3O7,-2.2699296373076923
mp-1254576,AlNi(WO4)2,-2.248289101249999
mp-1254937,Ca2AlCoO5,-2.791027576666666
mp-1257650,AlRe(WO4)2,-1.946498734375
mp-1261382,Mg5AlH21O17,-1.78777891309659
mp-1264182,AlV4(CuO4)3,-1.9817258185000002
mp-1291925,Li2AlCoO4,-2.367405159270833
mp-1345578,AlIn3(CuSe2)4,0.40593709796874905
mp-1368847,Ca2AlBiO5,-2.776143947222222
mp-1387660,AlSb(WO4)2,0.8470046883333331
mp-2228023,MgAlCrO4,-2.581775410714286
mp-558808,LiAl(SiO3)2,-3.204650760333332
mp-568788,La2AlNi9H2,-0.35906842160714303
mp-677288,Mg5AlH21O17,-1.768713978323863
mp-721369,AlH12(OF)5,-1.573792844347826
mp-769572,LiAlVO4,-2.752623094761904
mp-1222956,LaAlCuNi3,-0.41123198916666603
mp-768763,Li4AlCr3O8,-2.5704984555208332
mp-1217913,TaTiAlO6,-3.392110943962961
mp-1025206,Eu2AlNO3,-2.69194624857143
mp-1025275,Ce2AlNO3,-3.042877807142855
mp-1025276,Sm2AlNO3,-3.1173344100000002
mp-1025277,Pr2AlNO3,-3.045204071904761
mp-1217962,SrSmAlO4,-3.5300901035714283
mp-1217963,SrPrAlO4,-3.505392873095238
mp-1218150,SrNdAlO4,-3.517478288214285
mp-1218184,SrLaAlO4,-3.549168227857143
mp-1218276,SrEuAlO4,-3.2661937978571443
mp-1218323,SrCeAlO4,-3.479069572857142
mp-1227041,CaNdAlO4,-3.5588587267857132
mp-1227044,CaYAlO4,-3.576451555714285
mp-1227060,CaSmAlO4,-3.577859907857143
mp-1227092,CaGdAlO4,-3.572300950000001
mp-546679,Nd2AlNO3,-3.077063477857142
mp-1182875,AlHg2O2F5,-1.9309594585000012
mp-1189716,AlHg2O2F5,-1.707890468500001
mp-1105616,AlC3NCl3,0.40876568687499804
mp-1182913,AlC5NCl,0.723669634999997
mp-1189041,AlC5NCl,1.084564966874998
mp-1193850,Ca2AlP2O9,-3.085039444234694
mp-558360,AlAs3S5Cl4,-1.003615093461538
mp-559940,AlS2NCl6,-0.7664228741041721
mp-1214098,Ca2AlSi2O7,-3.213836197916665
mp-1228066,AlTl2Cu3Se4,-0.448475757500003
mp-1225411,Eu2AlP3Pt7,-0.9270975856868121
mp-1227376,Ca2AlP3Pt7,-1.012561421071425
mp-1019802,KAl(PO3)4,-2.796808548378968
mp-1045829,AlCu3(NiO3)4,-1.00328239
mp-1104925,KAlCr2O10,-1.551409781946429
mp-1193394,NaEu2AlP3,-0.9112382161154131
mp-1210191,NaAl(SO4)2,-2.305674947198275
mp-1214890,AlCo(OF)6,-0.9338868860714291
mp-1214974,AlCuO4F,-1.3046022135714281
mp-1222577,LiAlNi3O5,-1.923926803333333
mp-1222632,MgAlSi4O15,-1.9935048554761892
mp-1222767,Li2AlCoO4,-2.387194207083333
mp-1228986,AlH6N2F3,-1.618079401875
mp-1299391,LiAlVO4,-2.805474823333334
mp-620652,NaSr2AlP3,-0.8785268332582681
mp-754006,Li4AlCr3O8,-2.568456423645833
mp-755675,Li4AlCr3O8,-2.569129379583333
mp-1031505,KMg6AlO8,-2.631069750453124
mp-1031510,NaMg6AlO8,-2.903835460086206
mp-1031514,LiMg6AlO8,-2.9925123258333333
mp-1031524,LiMg6AlO8,-2.983636449583333
mp-1031529,NaMg6AlO8,-2.879491410086206
mp-1031540,Mg6AlSiO8,-2.521475695
mp-1031545,RbMg6AlO8,-2.542021549218749
mp-1031567,Mg6AlSiO8,-2.6307293325
mp-1032871,HfMg6AlO8,-2.644077472499999
mp-1032931,HfMg6AlO8,-2.707046688124999
mp-1032986,Mg6AlBO8,-2.505731093072916
mp-1032987,Mg6AlBO8,-2.5526974530729163
mp-1032988,Mg6AlCdO8,-2.652592602499999
mp-1032999,Mg6AlCO8,-2.4336580178125002
mp-1033014,Mg6AlCdO8,-2.606920508124999
mp-1033019,Mg6AlBiO8,-2.359117132499999
mp-1033028,SrMg6AlO8,-2.732144519375
mp-1033029,Mg6NbAlO8,-2.569366616249999
mp-1033032,Mg6NbAlO8,-2.598509493125
mp-1033034,Mg6AlCrO8,-2.707922676875
mp-1033042,RbMg6AlO8,-2.45293215484375
mp-1033056,SrMg6AlO8,-2.6981752875
mp-1033058,KMg6AlO8,-2.6943229979531242
mp-1033059,BaMg6AlO8,-2.55204061875
mp-1033060,Mg6AlCO8,-2.3575649065625
mp-1033061,BaMg6AlO8,-2.48650068625
mp-1033062,CaMg6AlO8,-2.843927999374999
mp-1033065,CsMg6AlO8,-2.346000824978448
mp-1033070,Mg6TiAlO8,-2.748871969583333
mp-1033073,Mg6AlBiO8,-2.45187369875
mp-1033075,CaMg6AlO8,-2.829897019999999
mp-1033087,Mg6TiAlO8,-2.759277975208333
mp-1033094,Mg6AlNiO8,-2.750642821875
mp-1033099,Mg6AlCoO8,-2.7474983775
mp-1033104,Mg6AlZnO8,-2.703773895624999
mp-1033108,YMg6AlO8,-2.717758679374999
mp-1033115,Mg6AlCoO8,-2.717905384375
mp-1033116,Mg6AlVO8,-2.73117376125
mp-1033120,Mg6AlCrO8,-2.7519795675000003
mp-1033127,YMg6AlO8,-2.738142266249999
mp-1033130,Mg6AlZnO8,-2.7441043475
mp-1033139,Mg6AlCuO8,-2.768593286875
mp-1033141,Mg6AlSnO8,-2.457789614062499
mp-1033144,Mg6AlCuO8,-2.722322778749999
mp-1033146,Mg6MnAlO8,-2.73017934612069
mp-1033157,Mg6AlSnO8,-2.532442225937499
mp-1033159,Mg6AlVO8,-2.743107495625
mp-1033174,Mg6MnAlO8,-2.71726917237069
mp-1033177,Mg6AlFeO8,-2.709434204375
mp-1033183,Mg6AlFeO8,-2.6632073899999993
mp-1033923,Mg6AlNiO8,-2.696689521249999
mp-1036398,Mg14AlBO16,-2.783541372786458
mp-1036437,Mg14AlCO16,-2.69714904796875
mp-1036439,Mg14AlCdO16,-2.841673080937499
mp-1036452,Mg14AlBiO16,-2.69941897375
mp-1036478,HfMg14AlO16,-2.8376321675
mp-1036480,RbMg14AlO16,-2.795420494609374
mp-1036503,CsMg14AlO16,-2.693152878739224
mp-1036515,BaMg14AlO16,-2.7808653990625
mp-1036521,Mg14NbAlO16,-2.812419978125
mp-1036522,SrMg14AlO16,-2.8823793424999993
mp-1036528,LiMg14AlO16,-3.013945260729166
mp-1036531,Mg14TiAlO16,-2.902568101979167
mp-1036544,NaMg14AlO16,-2.973109700355603
mp-1036556,Mg14AlCuO16,-2.895054923749999
mp-1036563,KMg14AlO16,-2.8725729792890613
mp-1036569,Mg14AlSiO16,-2.791946799374999
mp-1036582,Mg14AlSnO16,-2.76545233078125
mp-1036585,Mg14AlCrO16,-2.8859282446875
mp-1036613,Mg14AlCoO16,-2.8970556796875
mp-1036614,Mg14AlZnO16,-2.8853153603125
mp-1036615,Mg14AlNiO16,-2.8754574175
mp-1036617,Mg14AlVO16,-2.8934050103125
mp-1036621,YMg14AlO16,-2.8726288584375
mp-1036637,Mg14MnAlO16,-2.886510422122844
mp-1036644,CaMg14AlO16,-2.9446782884375002
mp-1036709,Mg14AlFeO16,-2.863290046874999
mp-1037717,HfMg30AlO32,-2.935221076874999
mp-1037722,HfMg30AlO32,-2.938663677031249
mp-1037954,CsMg30AlO32,-2.893464234369612
mp-1037955,Mg30AlBO32,-2.919215064205728
mp-1037957,SrMg30AlO32,-2.968557900312499
mp-1037958,BaMg30AlO32,-2.9304101403125
mp-1037969,SrMg30AlO32,-2.972811240312499
mp-1037970,Mg30AlCdO32,-2.94284188890625
mp-1037998,Mg30AlCdO32,-2.9471705926562493
mp-1038042,Mg30AlCrO32,-2.96449768765625
mp-1038188,Mg30AlBO32,-2.914053887486978
mp-1038189,Mg30AlCO32,-2.882352444296874
mp-1038195,Mg30AlCO32,-2.866005394765624
mp-1038196,Mg30NbAlO32,-2.930974106249999
mp-1038197,RbMg30AlO32,-2.938862806992187
mp-1038199,NaMg30AlO32,-3.012356210177802
mp-1038200,BaMg30AlO32,-2.922885241718749
mp-1038202,Mg30AlBiO32,-2.870487545156249
mp-1038203,RbMg30AlO32,-2.949030494804687
mp-1038204,LiMg30AlO32,-3.033880528177083
mp-1038205,Mg30AlBiO32,-2.890488282187499
mp-1038206,NaMg30AlO32,-3.017136293459051
mp-1038212,Mg30AlSiO32,-2.9176246615625
mp-1038214,Mg30NbAlO32,-2.931817104218749
mp-1038224,Mg30AlSnO32,-2.907808672734374
mp-1038225,CsMg30AlO32,-2.906620597025861
mp-1038227,LiMg30AlO32,-3.030168198177083
mp-1038234,KMg30AlO32,-2.97077657292578
mp-1038237,Mg30TiAlO32,-2.9737800997395833
mp-1038238,Mg30TiAlO32,-2.9707775269270833
mp-1038247,Mg30AlSiO32,-2.928456867343749
mp-1038258,Mg30AlSnO32,-2.913738909765624
mp-1038272,Mg30AlCrO32,-2.970637710624999
mp-1038308,Mg30AlCuO32,-2.975877158906249
mp-1038310,Mg30AlCuO32,-2.9703545079687492
mp-1038312,Mg30AlZnO32,-2.9624321685937502
mp-1038314,Mg30AlNiO32,-2.971837685156249
mp-1038319,CaMg30AlO32,-2.997060967812499
mp-1038321,YMg30AlO32,-2.9621958765625003
mp-1038325,YMg30AlO32,-2.963200480312499
mp-1038339,Mg30AlVO32,-2.97082391296875
mp-1038340,Mg30AlCoO32,-2.972547185625
mp-1038344,Mg30AlCoO32,-2.976618446875
mp-1038346,CaMg30AlO32,-2.999171338124999
mp-1038353,Mg30AlZnO32,-2.9652648412500002
mp-1038358,Mg30AlNiO32,-2.9647727965625
mp-1038365,Mg30MnAlO32,-2.966732391998922
mp-1038379,Mg30AlFeO32,-2.96584179015625
mp-1038385,Mg30AlFeO32,-2.95357035171875
mp-1038408,Mg30AlVO32,-2.97082294734375
mp-1038409,Mg30MnAlO32,-2.9679776112176723
mp-1041926,Ba2Ti3AlO8,-3.020404671428571
mp-1042222,Ba2AlAg3O8,-1.395829831785713
mp-1042329,Ba2AlBi3O8,-1.843993282857143
mp-1042344,Ba2AlSn3O8,-2.127497418214286
mp-1042435,Ba2AlCu3O8,-1.745410530714285
mp-1042580,Ba2AlSb3O8,-2.006968025
mp-1048103,Ba2Mn3AlO8,-2.340782317413792
mp-1048143,Ba2AlW3O8,-1.9740566442857141
mp-1048153,Ba2AlFe3O8,-2.147870685714285
mp-1048171,Ba2AlCr3O8,-2.433640662142856
mp-1048180,Ba2AlCo3O8,-1.9156261857142851
mp-1048224,Ba2AlNi3O8,-1.763076705
mp-1098637,KMg30AlO32,-2.9786781660507797
mp-1099234,CsMg6AlO8,-2.236885309978448
mp-1147547,Sr2TaAlO6,-3.433930811733333
mp-1214823,AlTlFe2F2,-0.30892116888889004
mp-1235313,SrLiAlO3,-2.718815251388888
mp-1247656,Ca4Mn3AlO11,-2.597234440462795
mp-1209025,Sc2AlB2Ir5,-0.9291190343333321
mp-1209296,RbAlFe2F2,-0.589318352083333
mp-1211735,KAlFe2F2,-0.5049107528749991
mp-1214951,AlZn10(B4Rh9)2,-0.45675747576576503
mp-865047,Mg2AlB2Ir5,-0.6077664178333331
mp-1078453,BaAlGeF,-1.814644572499999
mp-1041645,AlSb(WO4)2,-2.1423068
mp-1041685,AlCo(WO4)2,-2.169092985833332
mp-1041805,AlCr(WO4)2,-2.435889494583334
mp-1041813,AlMo(WO4)2,-2.26362660625
mp-1041870,AlTe(WO4)2,-2.078406794722221
mp-1042105,AlV(WO4)2,-2.484224144166666
mp-1042146,AlBi(WO4)2,-2.254597890833333
mp-1042285,AlSn(WO4)2,-2.284469296249999
mp-1042310,AlRe(WO4)2,-2.065402343541667
mp-1043216,AlFe(WO4)2,-2.2839244916666672
mp-1047613,TiAl(WO4)2,-2.6372626627777773
mp-1047653,TaAl(WO4)2,-2.598512537694444
mp-1047674,AlAg(WO4)2,-2.111626893888888
mp-1047770,AlCu(WO4)2,-2.178751104583334
mp-1047774,MnAl(WO4)2,-2.387930121494253
mp-1194217,AlP3NO10,-1.925762967595238
mp-1342585,AlNi(WO4)2,-2.120716506666665
mp-18065,BaCaAlF7,-4.1013565515
mp-556596,AlP3(HO2)6,-2.205651715746752
mp-6442,LiAl(Si2O5)2,-3.243759347395833
mp-557607,AlMoP2O9,-2.7165568787912093
mp-696815,AlH4NF4,-2.19714858625
mp-1202309,AlH4NF4,-2.194094131099999
mp-1020030,LiAl(GeO3)2,-2.504243655333333
mp-1020031,LiCaAlN2,-1.181673299166667
mp-1183017,AlTlSiO4,-2.406794632976191
mp-1194859,AlV(TeO4)2,-2.137334604236111
mp-1195827,SrLiAlF6,-3.874798825925926
mp-1197607,K3Al(PO4)2,-2.837004077335883
mp-1197957,Na3Al(AsO4)2,-2.246037998866995
mp-1198190,SrAl(OF2)2,-2.823305674687501
mp-1199224,NaAl(SO7)2,-0.8825122624377381
mp-1199566,AlH10C3N,-0.1834001035
mp-1202030,Ce2AlSi2O9,-3.533217721607143
mp-1202937,AlH8C2N,-0.187679515902777
mp-1203200,AlPb3OF9,-2.678709783035713
mp-1203218,Rb9Al(HO2)4,-1.662588869886364
mp-1204749,LiAl(H3C)4,-0.21559164918981502
mp-1208364,TbAlGe2O7,-2.87509967810606
mp-1208925,SmAlGe2O7,-2.8671449436363643
mp-1209642,PrAlGe2O7,-2.852746820378787
mp-1211910,LaAlGe2O7,-2.8793963297727263
mp-1212574,GdAlGe2O7,-2.857296123863635
mp-1212768,EuAlGe2O7,-2.669063487045454
mp-1213060,DyAlGe2O7,-2.874474663106059
mp-1214856,AlSNCl3,-1.043285860520831
mp-1214940,AlP(HO2)2,-1.731163893392857
mp-1214960,AlH5(SeO4)2,-1.599531583496093
mp-1217718,Tb2AlFeO6,-3.278761241833332
mp-1251411,NaAl(H2N)4,-0.007355241964285
mp-1252808,AlB3H14N,-0.005877316052632001
mp-1253150,LiAlFeO4,-2.278529001904762
mp-14511,NaAlGeO4,-2.639848478649424
mp-16777,NaAlP2O7,-2.899156918924092
mp-17031,KAlP2O7,-2.935011804912336
mp-17477,AlFePO5,-2.750685666517856
mp-24398,AlP(H2O3)2,-2.174840022886904
mp-24413,Na2LiAlH6,-0.316796481859194
mp-542656,Cs2AlP3O10,-2.854127742546183
mp-542874,LiAl(SiO3)2,-3.191551080583333
mp-543044,BaLiAlF6,-3.860047451203703
mp-555548,MgAlPO5,-3.150440260267856
mp-555591,SrLiAlF6,-3.850441866203703
mp-556655,Li2AlBO4,-2.9125574113541663
mp-557177,Li2Al(BO2)5,-2.909059632222222
mp-557268,KLi4AlO4,-2.410383530683333
mp-557272,AlS2(NCl2)2,-0.671159369965276
mp-558114,Sr4NbAlO8,-3.296228674107142
mp-558169,NaCaAlF6,-3.819663446403256
mp-558847,AlSBr3N,-0.943083443333332
mp-560271,AlCuAsO5,-2.0388126803125
mp-560921,NaAlAs2O7,-2.1945148153526652
mp-561447,K3AlB8O15,-2.873760734354937
mp-561473,CaTaAlO5,-3.482259470916666
mp-567060,AlSeBr3N,-0.9053728370572921
mp-6016,NdAlGe2O7,-2.859952355909091
mp-643829,AlSiHO4,-2.82826644017857
mp-6596,MgAlPO5,-3.154525512142857
mp-6604,Na2LiAlF6,-3.4304397095
mp-695962,LiAl(H2N)4,-0.265349167916666
mp-699431,AlH4(SeO4)2,-1.543535619979166
mp-706590,NaAl(H2N)4,0.07930066928571401
mp-706662,AlB3H14N,0.010559028289473001
mp-707784,AlH18(NO6)3,-1.291577204687501
mp-721876,AlP2H5O9,-2.195596504884454
mp-722269,AlP3(HO5)2,-2.547849365401785
mp-722527,AlH11SO10,-1.6316652210326081
mp-727215,AlPb3OF9,-2.8044517414285712
mp-727932,BeAlSiO5,-2.95067214125
mp-740733,NaAl(H2N)4,0.045032416250000006
mp-770360,Li2AlVO4,-2.699032545833333
mp-770400,Li2AlNiO4,-2.199885542708333
mp-770551,Li2MnAlO4,-2.571571564324713
mp-770610,Li2AlCoO4,-2.330951217708334
mp-770698,Li2AlFeO4,-2.4184753758333333
mp-770702,Li2AlFeO4,-2.409819967708332
mp-770704,Li2AlFeO4,-2.488014498645833
mp-770750,Li3Al(FeO3)2,-2.261948275416667
mp-771906,Li2AlCoO4,-2.331791116770834
mp-772430,Li2AlFeO4,-2.475174380520832
mp-849801,Li2AlCoO4,-2.287442411145833
mp-1214879,AlTlFe2F2,-0.43616594222222305
mp-15736,Sr3AlO4F,-3.419933012777777
mp-1196181,AlC8BrO5,-0.5595296860833321
mp-1201838,AlH16(C3O7)2,-1.341194937466216
mp-562920,CsAl(SiO3)2,-3.241411223965518
mp-1223549,KAlSiO4,-2.829718561035714
mp-2713950,Nb3Al(PO4)6,-2.905819250329132
mp-2713962,Ta3Al(PO4)6,-3.017270685780112
mp-1044546,Ba2AlSn2F11,-3.475678861354167
mp-1044573,Ba2Ti2AlF11,-3.658886314062499
mp-1044788,Ba2AlCr2F11,-3.601217216979167
mp-1044800,Ba2AlV2F11,-3.634177167187501
mp-1044802,Ba2AlNi2F11,-3.3912038463541663
mp-1044811,Ba2Mn2AlF11,-3.627614539220546
mp-1044813,Ba2AlCo2F11,-3.403479886770834
mp-1044845,Ba2AlFe2F11,-3.498076629062499
mp-1044860,Ba2AlW2F11,-3.1112445446875
mp-561318,Ba2AlCu2F11,-3.243204630729166
mp-1216346,Y9Al(GeS7)3,-1.83399018345588
mp-1219290,Sm9Al(SiS7)3,-1.957041910514704
mp-1220637,Nb3AlSnMo3,-0.20544465
mp-1220647,Nb3AlV3Sn,-0.13968110693056301
mp-1220763,Nb3Al(PO4)6,-2.913388890231092
mp-1222525,LiAlGeO4,-2.71391904690476
mp-1228924,AlCr3SiMo3,-0.14714088233553102
mp-1228984,AlCu(PSe3)2,-0.55887899333482
mp-1233060,MgAl(Bi3O5)4,-1.7440806225000012
mp-1233723,MgAl(Bi3O5)4,-1.709242159264706
mp-18220,LiAlSiO4,-3.210481965714286
mp-770509,LiAlVO4,-2.775747754047618
mp-1045776,AlV4(CuO4)3,-1.882619371500001
mp-16947,LiAlGeO4,-2.687367997142856
mp-770365,LiAlVO4,-2.771744499761904
mp-1020661,NaAl(SiO3)2,-3.175639370762931
mp-1105277,AlHSO5,-2.26148272546875
mp-1180605,NaAlS2O19,-0.39608420092953506
mp-1182967,AlCu2AsO12,-0.77649535953125
mp-1188124,LiAl(PS3)2,-0.9481544117619041
mp-1190676,AlH6ClO4,-1.694250019791666
mp-1191939,AlH6IO4,-1.593938973541667
mp-1192001,AlH6BrO4,-1.654701392708332
mp-1192652,La2Al(BOs)2,-0.46746363511904704
mp-1193153,NaAlCr2O10,-1.501856055098521
mp-1196841,NaAlS2O19,-0.329470458973013
mp-1199082,SrAl(OF2)2,-2.857396199375
mp-1200757,AlH10C3N,-0.18567997000000003
mp-1203296,AlH12(NO5)3,-1.297233539677419
mp-1204288,AlH12(CN)3,-0.216605543815789
mp-1213985,CaAlSiO5,-3.168835553125
mp-1214444,BaMnAlF7,-3.7144226120431023
mp-1214458,BaAlCdF7,-3.569504678
mp-1237061,AlTlFe2F2,-0.65837522138889
mp-15733,CaTaAlO5,-3.484082552166667
mp-21978,Na2AlCoF7,-3.158337274228056
mp-557104,LiAlB2O5,-2.988829571851851
mp-561315,Cs3AlGe2O7,-2.405274430305039
mp-561398,NaAl(MoO4)2,-2.333600209281609
mp-567734,AlAs3(SeCl)4,-1.03045002140625
mp-6124,NaAl(SiO3)2,-3.158493668637931
mp-6340,LiAl(SiO3)2,-3.194587714333333
mp-699582,Na2AlFeF7,-3.220438229228056
mp-770706,Li6MnAlO6,-2.294734384852217
mp-1182904,AlI2NO15,-0.230661672105263
mp-1193222,LiMgAlF6,-3.714650802037037
mp-1193498,LiMgAlH6,-0.287372329537036
mp-1209251,RbAl(SeO4)2,-1.759618929348957
mp-1209303,RbAl(SO4)2,-2.320185810208333
mp-1214825,AlSe2NO8,-0.8470537266406241
mp-1214828,AlTl(SeO4)2,-1.58013821733507
mp-1214834,AlTl(SO4)2,-2.1354919431944452
mp-1214883,AlS2NO8,-1.422820226666666
mp-17944,NaCaAlF6,-3.830305885338441
mp-2713730,AlGa(SO4)3,-2.127497519803922
mp-2713743,ScAl(SO4)3,-2.441100877892157
mp-2713858,YAl(SO4)3,-2.4590641644607842
mp-2713949,AlIn(SO4)3,-2.108224078186275
mp-2713959,LaAl(SO4)3,-2.445689396911766
mp-669367,KAl(SO4)2,-2.3129366476875
mp-572149,Cs2Al(NO3)5,-1.343784596346828
mp-1207108,BaAlGeH,-0.5559276915625
mp-1215910,YMgAlGe2,-0.46720209499999904
mp-1218153,SrLiAlSb2,-0.684009416666665
mp-1223586,KAl(SiO3)3,-2.835061419446429
mp-1224639,GdAlZnGe2,-0.445264781999999
mp-1227998,AlSiCN,-0.8561789900000011
mp-568177,CaAlSiH,-0.466630160625
mp-570485,SrAlSiH,-0.4586405203125
mp-571093,BaAlSiH,-0.45983012531250006
mp-980057,SrAlGeH,-0.5452036390625
mp-9480,KAlSiO4,-3.184236963892856
mp-1216272,Y16Mg3AlNi4,-0.20291158645833202
mp-1221961,MgScAlO4,-3.488216215714285
mp-1228843,AlSb3Pb4O13,-1.9797495226190471
mp-1228925,AlCdSbTe,-0.43092616166666503
mp-1228978,AlCdInS4,-0.86805010446428
mp-1228995,AlInCuO4,-2.100291866666666
mp-1247432,Mg2AlW3S8,-1.077598908571427
mp-1199988,AlPb3SO11,-1.472813925156249
mp-1220868,NaAlSiO4,-3.121143808292283
mp-1228164,AlSiAgO4,-2.6854063780952373
mp-1228209,AlTlSiO4,-2.9007873485714297
mp-1215165,AlFe3(SO7)6,-0.498193270384616
mp-6134,LiCaAlF6,-3.870292022592592
mp-6591,SrLiAlF6,-3.876253812592592
mp-770562,Li6AlCrO6,-2.3644736185714272
mp-777878,Li6AlFeO6,-2.244142782321428
mp-9055,LiAlPdF6,-2.876894756697527
mp-1206808,Cs2LiAlF6,-3.4377826902643682
mp-1209248,RbAl(MoO4)2,-2.373306999791667
mp-1216714,TiNbAlC,-0.6039864770833331
mp-1217042,TiAlVC,-0.596308088333332
mp-1217909,TaTiAlC,-0.618764197666665
mp-1220371,NbAlVC,-0.470681731250001
mp-1222590,Li3Al(CoO3)2,-2.145772447499999
mp-1228847,AlVCrC,-0.3422021725
mp-18733,AlTl(MoO4)2,-2.203208559444446
mp-19352,KAl(MoO4)2,-2.369613685604167
mp-2912047,RbAl(SO4)2,-2.059095274739583
mp-505784,CsAl(MoO4)2,-2.3849798274712652
mp-556996,K2LiAlF6,-3.464421298116666
mp-7645,KAl(SO4)2,-2.324786537687498
mp-1194950,Na3U6AlF30,-3.8304596026034483
mp-1095623,AlHg3(OF3)2,-2.069870544791668
mp-1222534,Li4AlNi3O8,-1.876845110208333
mp-1222628,Li5Al(Co2O5)2,-1.899586408333334
mp-1226182,Cs2Al(TeO4)3,-1.835969256628351
mp-1246455,Mg2AlMo3S8,-1.015356554999999
mp-1246790,Mg2AlCr3S8,-1.253732995714285