material_id,formula,formation_energy_per_atom
mp-28034,Cu2P7,-0.13935082398148102
mp-1394093,Cu2S,-0.084396866354166
mp-1147700,Cu2N,0.35121780166666605
mp-1825,Cu2Sb,0.034371576666664
mp-7474,Cu2As,0.016657334166668
mp-1018149,ScCu2,-0.23641582500000102
mp-1097707,Cu2Se,-0.07560757614583201
mp-581212,Cu2S,-0.19943631746527501
mp-755040,Cu2O3,-0.787026701
mp-755928,Cu2O3,-0.4589598535
mp-2831205,Cu2S,-0.11657263468749901
mp-1225835,Cu2S,-0.15517892260416702
mp-1215401,ZnCu2,-0.032887879999999
mp-1245668,Cu2As3,0.17470517900000002
mp-1377,ThCu2,-0.20136215666666601
mp-1861,Cu2Te,0.08165582833333401
mp-2016621,PuCu2,-0.08167923125000201
mp-2051,LaCu2,-0.198986075
mp-2281971,GaCu2,0.011448353273806
mp-1102436,YCu2,-0.173063584166669
mp-1103426,YbCu2,-0.25206621833333204
mp-12118,InCu2,0.06957535190476201
mp-16775,CdCu2,0.012524586666664
mp-30696,Cd5Cu2,0.024077038571428
mp-553942,Cu2S,0.026381998645833002
mp-568315,CdCu2,0.009884054999998
mp-771359,Cu2O3,-0.833129008249999
mp-22297,Cu2Se,-0.008857885520832
mp-361,Cu2O,-0.6445054383333331
mp-12087,Cu2S,-0.11781005802083101
mp-16366,Cu2Se,-0.025158175520833003
mp-1038,MgCu2,-0.12408862500000101
mp-1077241,YCu2,-0.140404950000001
mp-684653,Cu2Se,-0.026545130520832003
mp-760432,Cu2O3,-0.851877498249999
mp-1225805,Cu2Se,-0.040014105520834
mp-1225811,Cu2S,-0.156250008020832
mp-1208489,Ti5Cu2,0.09707169321428501
mp-1046820,Cu2O3,-0.6522026015000001
mp-1072655,ZrCu2,-0.117626063333333
mp-1077023,TiCu2,-0.11994215388888801
mp-1024991,ErCu2,-0.28406123111111004
mp-1025032,PuCu2,0.13956279708333802
mp-1025122,LuCu2,-0.301147022222219
mp-1071732,EuCu2,-0.12816801833333502
mp-1071835,DyCu2,-0.27352977833333103
mp-1071904,PrCu2,-0.17321706888888802
mp-1077001,GaCu2,0.01152361660714
mp-1077154,SmCu2,-0.223956848333334
mp-1077209,TmCu2,-0.29411704333333405
mp-1077933,GdCu2,-0.200788816666668
mp-11852,NdCu2,-0.196883715833332
mp-1527,TbCu2,-0.26697835333333303
mp-2698,YCu2,-0.246509470000001
mp-2801,CeCu2,-0.11083111166666701
mp-30584,HoCu2,-0.27910865833333504
mp-567538,YbCu2,-0.30286873000000003
mp-684525,Cu2Se,-0.033469192187501
mp-1021499,Cu2Se,-0.046550767187499
mp-618991,Cu2S,-0.19259980177083302
mp-1100809,Zr(CuCl3)2,-1.5860282092592581
mp-1101003,V18Cu2O45,-2.137595382692309
mp-1225914,Cu2GeTe3,-0.120222347222229
mp-532329,Fe3(CuS5)2,-0.6371736478333331
mp-622026,Cu2WO4,-1.444037695357142
mp-622628,Cu2SbO5,-0.12453602187500001
mp-654033,La2Cu2O5,-2.505366599074074
mp-753199,Li3Cu2F8,-2.371216698461562
mp-760190,Cu2OF2,-1.39620010025
mp-760773,LiCu2F7,-1.916665315166663
mp-772965,V12Cu2O29,-2.223867730813953
mp-2225295,Mg(CuO)2,-0.9684420209999991
mp-1095489,Cu2IO3,-0.695610755
mp-1095679,Cu2BrO3,-0.6473292433333331
mp-1102607,Cu2ClO3,-0.6793175783333331
mp-1188223,Cu2NO6,-0.7013469266666661
mp-26532,Cu2P3O10,-2.053159635261904
mp-752742,LiCu2F4,-2.014070816666667
mp-1025150,Cu2WSe4,-0.21293031803571602
mp-568598,Cu2HgI4,-0.441223748928573
mp-8976,Cu2WS4,-0.533234831607141
mp-1233072,Mg(CuN)2,0.200291939416666
mp-1389439,Zn(CuN)2,0.500860289999999
mp-1402859,Ca(CuN)2,0.16642175650000002
mp-2228225,Mg(CuO)2,-1.060056478999999
mp-2227057,Mg(CuO)2,-1.183491984999999
mp-1042297,Mg(CuO2)2,-1.302290427857141
mp-1068891,Sr(CuSn)2,-0.345071726
mp-1069357,Eu(CuSn)2,-0.361400986999993
mp-1078672,Ce2CdCu2,-0.137159072499997
mp-1209792,Rb(CuO5)2,-0.25062896211538405
mp-13128,Cu2As2O7,-1.347023538181819
mp-1403402,Ca(CuO2)2,-1.42140087142857
mp-1407035,Zn(CuO2)2,-1.081329078571428
mp-1417806,Cu2B2C,0.634081701916666
mp-1444074,Mg(CuO2)2,-1.398432948571427
mp-20806,Gd(CuGe)2,0.49011020799999905
mp-2408760,NaCu2O3,-1.175251908563218
mp-2646914,Nb8Cu2O21,-2.7647111887096782
mp-30019,ZrCu2Te3,-0.7182540791666641
mp-3650,HfCu2Te3,-0.682466131666661
mp-4386,Cu2SO5,-1.3541891384375
mp-504567,Mn3(CuO4)2,-1.516291251830238
mp-541754,TiCu2Te3,-0.488242698611112
mp-545467,Li3(CuO2)2,-1.582540591111112
mp-556595,Nd4Cu2O7,-3.017822813461537
mp-568974,Ca(CuSn)2,-0.317747624
mp-579544,Ca6Cu2Sn7,-0.547186898333333
mp-754483,Na3(CuO2)2,-1.333669377126436
mp-755210,Y4Cu2O7,-3.085859221923076
mp-760490,Mg7Cu2O9,-2.510196606111111
mp-779328,NaCu2O3,-1.114387258563218
mp-8090,Cu2P2O7,-2.026139350844154
mp-861595,Pr2CdCu2,-0.22915599866666603
mp-1025340,Cu2WSe4,-0.40072272517857405
mp-1147680,Cu2SiO4,-1.794291299999999
mp-1147769,Cu2GeS4,-0.48075971785714106
mp-1389664,Cu2SnSe4,-0.25176149977550705
mp-1407385,Cu2GeSe4,-0.43203506776785705
mp-23353,Cu2HgI4,-0.44475811892857203
mp-557373,Cu2WS4,-0.536397687321427
mp-1215166,ZrZnCu2,-0.10492029250000101
mp-1216661,TiZnCu2,-0.07744224333333201
mp-1216855,TiCu2Sn,0.021353843333333
mp-1216922,TiInCu2,-0.005971682499999
mp-1224398,HfInCu2,-0.029764911666664003
mp-1232316,TiCu2N3,-0.071106099236108
mp-1232321,MgCu2O3,-1.41177515
mp-30593,ZnCu2Ni,-0.12242532750000001
mp-1078544,Sc2InCu2,-0.40901755999999806
mp-1078738,Er2InCu2,-0.45305897533333406
mp-1078916,Tm2InCu2,-0.460901496000002
mp-1079383,Ce2InCu2,0.054513483176927
mp-1079498,Pr2InCu2,-0.35438206266666705
mp-1079508,Y2InCu2,-0.43565285000000203
mp-1079779,Tb2InCu2,-0.444775348000001
mp-1080722,Nd2CdCu2,-0.244146885999997
mp-1080814,Lu2InCu2,-0.46095034766666704
mp-11086,La2MgCu2,-0.19086639000000002
mp-1205563,Ho2MgCu2,-0.223123537999998
mp-1205577,Pr2MgCu2,-0.16878168566666601
mp-1205581,Ho2CdCu2,-0.28503695699999504
mp-1205707,Tb2MgCu2,-0.22199717266666802
mp-1205745,Er2MgCu2,-0.23443402299999702
mp-1205861,Tm2CdCu2,-0.29299822000000403
mp-1205864,Y2CdCu2,-0.276282442000001
mp-1205970,Tm2MgCu2,-0.262862837000002
mp-1205987,Dy2MgCu2,-0.22502422666666103
mp-1206453,Sm2CdCu2,-0.264338008000001
mp-1206454,Er2CdCu2,-0.29392877300000003
mp-1206555,Dy2CdCu2,-0.28593155666666603
mp-1206783,Ce2InCu2,-0.26831620582307203
mp-1206905,Sm2MgCu2,-0.20182759499999803
mp-1208521,Tb2CdCu2,-0.285950077666666
mp-16638,Nd2MgCu2,-0.18792694099999702
mp-21500,Yb2InCu2,-0.47007365000000306
mp-22810,Ce2MgCu2,-0.068175524666662
mp-4901,Y2MgCu2,-0.215355327999999
mp-574369,La2InCu2,-0.33874295333333304
mp-1006321,Ce(CuSb)2,-0.47057091799999906
mp-1078587,Lu(CuSn)2,-0.26987036733331704
mp-1079204,Sm(CuSn)2,-0.389501194999998
mp-1080173,Ce(CuSn)2,-0.36299105599999804
mp-1080696,U(CuSn)2,0.018470090000002
mp-1080702,Ba(CuSb)2,-0.5424659430000021
mp-1087238,Y(CuSn)2,-0.333321489
mp-1095106,Gd(CuSn)2,-0.37499609799999906
mp-1095111,Pr(CuSn)2,-0.42286908233333204
mp-505515,Sr(CuSb)2,-0.514049587
mp-505769,Eu(CuSb)2,-0.520817588000001
mp-636264,La(CuSn)2,-0.5056304490000001
mp-980084,Th(CuSn)2,-0.34569670500000105
mp-605333,In2Cu2O5,-1.480011692037037
mp-1246246,Ca5(CuN2)2,-0.806543304090909
mp-781864,LiCu2F5,-2.057238938177082
mp-1212597,Hf2InCu2,-0.219985621833336
mp-758265,LiCu2F6,-2.088305655185185
mp-553966,Li(CuO)2,-1.231982739666667
mp-760829,Na(CuO)2,-1.115233691775861
mp-10437,Ba(CuSe)2,-1.037633488937499
mp-1147754,K3Cu2H7,-0.089386050624998
mp-1183490,Ca(CuAs)2,-0.5569252169999991
mp-1206434,Nd(GaCu)2,-0.45129546750000005
mp-1208837,Sr(InCu)2,-0.18005636866666602
mp-1214759,Ba(InCu)2,-0.15480337866666502
mp-1226124,CoCu2O3,-0.767745774166667
mp-13400,Sm(CuGe)2,-0.530388595000002
mp-13401,Yb(CuGe)2,-0.501812022999999
mp-20173,Ce(CuGe)2,-0.498672065999998
mp-20307,Np(CuGe)2,0.0014414189166700002
mp-20322,La(CuGe)2,-0.6056744510000011
mp-2038625,Gd(CuGe)2,-0.5424220899999991
mp-20677,Gd(CuSi)2,-0.569659721999998
mp-20751,Pu(CuSi)2,0.068068066250003
mp-20982,K3Cu2F7,-2.455987015562499
mp-21388,U(CuGe)2,-0.18565618006666101
mp-22066,Dy(CuGe)2,-0.552149536999999
mp-22374,U(CuSi)2,-0.43500546900000303
mp-2371187,Cu2B2C,0.630763111916665
mp-2646999,K(CuS)2,-0.757603732449999
mp-2877,Nd(CuSi)2,-0.6278194554999991
mp-2917,Dy(CuSi)2,-0.633819243000002
mp-3177,Nd(CuGe)2,-0.588987317499999
mp-3241,Sr(CuGe)2,-0.36623066799999704
mp-3390,Y(CuSi)2,-0.62837814
mp-3412,Eu(CuSi)2,-0.429998627
mp-3456,Tb(CuSi)2,-0.6412724780000011
mp-3557,Eu(CuGe)2,-0.42947091900000206
mp-3995,La(CuSi)2,-0.618768921
mp-3997,Sm(CuSi)2,-0.638962692000001
mp-4014,Pr(CuSi)2,-0.553462628333333
mp-4105,Ho(CuSi)2,-0.6250300229999991
mp-4255,Ba(CuS)2,-1.120346294499994
mp-4305,Er(CuSi)2,-0.615633444666667
mp-4441,Ca(CuGe)2,-0.411326418
mp-4520,Y(CuGe)2,-0.49660633399999904
mp-4521,Tb(CuGe)2,-0.564549662000001
mp-4539,Ho(CuGe)2,-0.48412519499999807
mp-4861,Sr(CuAs)2,-0.589742415
mp-4903,Tm(CuSi)2,-0.609068221999999
mp-4911,Th(CuGe)2,-0.483107099999996
mp-4924,Pr(CuGe)2,-0.5832343063333321
mp-5000,Tl(CuSe)2,-0.31575110962499703
mp-5083,Er(CuGe)2,-0.474695871999998
mp-5346,Lu(CuSi)2,-0.520039041333333
mp-5452,Ce(CuSi)2,-0.593460608000003
mp-5486,Ca(CuSi)2,-0.42470240199999904
mp-567271,Np(CuSi)2,-0.257738349583343
mp-567657,K(CuSe)2,-0.7169771903874991
mp-567808,Tm(CuGe)2,-0.45825915800000105
mp-567840,Tm(CuGe)2,-0.312707292000001
mp-569204,Tl(CuTe)2,-0.326141221333334
mp-5934,Yb(CuSi)2,-0.6025564789999971
mp-5948,Th(CuSi)2,-0.5496728859999991
mp-6969,Sc(CuSi)2,-0.5232488150000001
mp-7298,Li(CuP)2,-0.37928940852381005
mp-7422,Ca(CuP)2,-0.635507087190475
mp-7877,Sr(CuSi)2,-0.321944324
mp-8676,Tl(CuS)2,-0.45361788966666805
mp-9247,Ba(CuAs)2,-0.5093311849999991
mp-1188594,Cu2TeO6,-1.014237880185184
mp-1190990,Cu2ClO3,-0.660320435
mp-1196187,Cu2CO5,-1.0755296015625
mp-1198036,Cu2AsO5,-1.22535767375
mp-1198809,Cu2CO5,-1.083062444687501
mp-1199882,Cr(CuO3)2,-1.057475501666667
mp-1212900,Cu2Pd3Se4,-0.29859067087081004
mp-559817,Na3(CuO2)2,-1.377017228793102
mp-560561,Cu2SeO4,-1.04517519533482
mp-572903,CsCu2F5,-2.143373806562499
mp-760002,Li3Cu2F7,-2.449759603333332
mp-760353,LiCu2F7,-1.8314782661666622
mp-761910,Li3Cu2F8,-2.398615668461561
mp-762259,Li2Cu2F5,-2.279606559814814
mp-764630,Cr3(CuO6)2,-1.285158879852941
mp-766217,Sr4Cu2O7,-2.341121934615382
mp-768512,Cu2(SO4)3,-1.445456005588234
mp-779159,Na8Cu2O7,-1.3367878693255562
mp-863372,LiCu2F6,-2.067219097962968
mp-1105558,Ca5CdCu2,-0.17985594437499902
mp-1189588,Eu5CdCu2,-0.154517006250003
mp-1190072,Yb5CdCu2,-0.23333377124999902
mp-1194379,Cu2N5Cl8,1.0639815816666691
mp-1047145,Mg(CuO2)2,-1.457183659642857
mp-1047148,Ca(CuO2)2,-1.611511985714285
mp-1047156,Zn(CuO2)2,-1.129661277142856
mp-13900,Sr(CuO)2,-1.662393840999998
mp-4362,Cu2Ag2O3,-0.65898790047619
mp-569532,TiCu2P,-0.5649003063690471
mp-7374,Ba(CuO)2,-1.616588649999994
mp-754501,Ca(CuO)2,-1.676793532
mp-754841,Sc(CuO2)2,-1.8785662257142852
mp-759897,Cu2OF2,-1.433523159
mp-9600,Cu2GeO4,-1.3558092
mp-778419,Na14Cu2O9,-1.336815970972413
mp-1181675,Cu2ClO3,-0.6594838820833331
mp-768451,Cu2(SO4)3,-1.462423984264705
mp-1101360,TiCu2O3,-1.967631604305555
mp-1172887,La2Cu2O5,-2.513447751851852
mp-1178410,Cu2NiO4,-0.9165393000000001
mp-1197653,U6Cu2Se13,-1.291918225974699
mp-1199685,Cu2(ReS2)3,-0.646991443863635
mp-1213635,Cu2(ReSe2)3,-0.308901621534087
mp-17598,Cu2Te3O8,-1.29066510076923
mp-2221678,Cu2OF2,-1.421990778
mp-28356,U6Cu2S13,-1.552821248690472
mp-29396,Cu2PbO2,-0.9810454259999981
mp-3638,Cu2P2O7,-2.028611891298699
mp-542860,V2Cu2O7,-1.810230954545455
mp-554298,Cu2As2O7,-1.356489722272727
mp-667803,Nd2Cu2O5,-2.445380316851851
mp-676563,Ta4Cu2O11,-2.818716448490194
mp-705670,V2Cu2O7,-1.599432567727273
mp-753089,LiCu2F6,-2.046236662407412
mp-753388,Li2Cu2F5,-2.246473492592591
mp-753831,Cu2OF2,-1.383482975
mp-757119,LiCu2F5,-2.076449996458331
mp-757247,V2Cu2O7,-1.790800284545454
mp-768507,Cu2(SO4)3,-1.440933330147058
mp-773596,Na7(CuO3)2,-1.378899526977011
mp-774762,Li2Cu2S3,-0.817834084166666
mp-1044657,Mg(CuO2)2,-1.415004779999999
mp-1044668,Zn(CuO2)2,-1.073165430714286
mp-1044926,Zn(CuO2)2,-1.068909925
mp-1044933,Ca(CuO2)2,-1.472286521190475
mp-1048893,Ca(CuO2)2,-1.47238456047619
mp-1049224,Mg(CuO2)2,-1.419749301666666
mp-1216178,Y3(Ga2Cu)2,-0.531091501111111
mp-1218656,Ta3(CuS3)2,-1.084991366999998
mp-1220938,Nb3(CuS3)2,-1.0980409045454531
mp-1224194,Ho3(Ga2Cu)2,-0.5277027483333311
mp-2225908,Mg(CuO)2,-1.349484518999999
mp-561468,Cu2SiS3,-0.40522583418075603
mp-1044687,Mg(CuO2)2,-1.429290732857142
mp-1044715,Zn(CuO2)2,-1.0601173
mp-1044717,Ca(CuO2)2,-1.457742828571428
mp-1215413,ZnCu2Ni,-0.039735859999999006
mp-1215545,ZnCu2Au,-0.004584144999999
mp-1227011,Cd3(CuP5)2,-0.17161916331746102
mp-2210632,Mg(CuS)2,-0.7279118759999991
mp-1018631,Dy(CuS)2,-0.978289926624987
mp-1018632,Ho(CuS)2,-0.9656576596249941
mp-1018634,Lu(CuS)2,-0.8708855204583301
mp-1018637,Tb(CuS)2,-0.993681271124989
mp-1018640,Tm(CuS)2,-0.9449860706249921
mp-1018642,Y(CuS)2,-0.9763444181249931
mp-1069723,U(CuAs)2,-0.36438787099999803
mp-1080149,Yb(CuS)2,-0.893802540124999
mp-1096867,Cd(CuSe)2,-0.5034926709375
mp-1205902,Li5(CuGe)2,-0.306518725185183
mp-1225845,Cu2Sn2Pd,-0.06700952524999701
mp-15986,Hf(CuP)2,-0.6142256198571361
mp-21478,U(CuP)2,-0.7276730941904751
mp-22716,LiCu2P,-0.335996236160713
mp-8219,Zr(CuP)2,-0.6583009338571351
mp-9581,Th(CuP)2,-0.7709506778571351
mp-1008511,BaGaCu2,-0.21939949437500103
mp-1102345,Cu2ClO3,-0.661091210833333
mp-1222572,Li7Cu2N3,-0.43399698357638805
mp-1225798,Cu2BrCl,-0.416526683749999
mp-1225799,Cu2IBr,-0.21155773
mp-30580,SrGaCu2,-0.2710796025
mp-1211918,La3Cu2S7,-1.5642200148698011
mp-541587,U3Cu2Se7,-1.186467960533843
mp-619067,U3Cu2S7,-1.420801893541656
mp-1207003,La2Cu2I,-0.6800004969999991
mp-1222076,Mn4Ga3Cu2,-0.12313307273946102
mp-1204375,Cu2AsO8,-0.32083654613636403
mp-1018723,HoCo3Cu2,-0.09816219749999801
mp-1215563,YbCu2Ni3,-0.275421745833334
mp-1217570,TbCu2Ni3,-0.286165471111111
mp-1222916,LaCu2Ni3,-0.26067489583332504
mp-1226659,CeCo3Cu2,-0.07235461999999901
mp-639756,DyIn3Cu2,-0.164820336378198
mp-7247,CeZn3Cu2,-0.259160623333333
mp-1080074,UCu2Sn,0.19259895875000202
mp-1207039,La2Cu2I,-0.6798737769999991
mp-12947,LaMgCu2,-0.1781148575
mp-22237,CeMgCu2,-0.091727294999998
mp-30070,U3Cu2Sb3,-0.380094978437504
mp-569834,LiCu2Sn,-0.18911922583333302
mp-578931,Cu2SeO4,-1.041947616763392
mp-777853,Na9Cu2O7,-1.3404686301340991
mp-1042292,Zn(CuO2)2,-1.001660356428571
mp-1178323,La2Cu2O5,-2.5109416801851863
mp-1181706,Cu2WO4,-0.657109957142856
mp-1182481,Cu2WO4,-1.3930998846428562
mp-1216478,V7(CuS6)2,-1.1155840157142851
mp-1217175,Ti5(CuS5)2,-1.4368296759803911
mp-1225882,Cu2AgO4,-0.7310126202380951
mp-1345424,Cu2WO4,2.024045361428572
mp-1376631,Zn(CuO2)2,-0.9691128382142851
mp-17281,Cu2PO4,-1.74161026494898
mp-2226671,Mg(CuO)2,-1.400928678999999
mp-2227548,Mg(CuO)2,-1.277349000999999
mp-505402,Cu2WO4,-1.448381621785714
mp-571054,Cu2Mo3Se4,-0.424669818472223
mp-651311,Cu2WO4,-1.299200773928571
mp-675608,Nb3(CuTe3)2,-0.332338799090908
mp-683170,Cu2SO4,-1.249093776785713
mp-683666,Cu2WO4,-1.246943003928571
mp-687096,V2Cu2O7,-1.772619992727273
mp-752835,Li2Cu2F5,-2.276803688148147
mp-753090,Li2Cu2F7,-2.233647809848495
mp-756162,Cu2W2O7,-1.6681697854545452
mp-757160,V6Cu2O15,-2.123107332391304
mp-758696,Li2Cu2F7,-2.258602400303042
mp-1212869,Fe(CuC6)2,1.995130853333333
mp-1217206,Ti4Cu2O,-0.8511176311904771
mp-1222020,Mn(CuSe)2,-0.43667473552155206
mp-1222040,Mn(CuS)2,-0.452371218896551
mp-1222078,Mn(CuTe)2,-0.262623279396558
mp-672708,Fe(CuS)2,-0.330165705499999
mp-672709,Fe(CuS)2,-0.293514184
mp-1007924,CrCu2Si,0.208971618766668
mp-1007961,CrInCu2,0.175193845178572
mp-1096932,Cu2GeI6,0.23132108055555503
mp-11293,ZrCdCu2,-0.138523232499998
mp-11360,ScGaCu2,-0.39477505375000105
mp-11366,ZrZnCu2,-0.221621480000001
mp-1183810,DyLuCu2,-0.28545412541666604
mp-1183862,DyErCu2,-0.268940989583335
mp-1184109,DyTmCu2,-0.27760004625
mp-1184202,ErLuCu2,-0.29848373249999904
mp-1184262,ErTmCu2,-0.290866678333333
mp-1184512,GdYCu2,-0.1798317075
mp-1184522,GdLuCu2,-0.24603091416666703
mp-1184750,HoErCu2,-0.27617698708333505
mp-1184891,HoLuCu2,-0.29285754291666705
mp-1185134,LaYbCu2,-0.17739955000000002
mp-1185430,LiZnCu2,-0.10682522083333201
mp-1185508,LuScCu2,-0.28025124291666603
mp-1186550,PmCdCu2,-0.173834951874997
mp-1186567,PmCu2Si,-0.42939070963871706
mp-1186595,PmHoCu2,-0.210939768124998
mp-1186596,PmGdCu2,-0.154377051875002
mp-1186665,PmTmCu2,-0.21942918687500002
mp-1186667,PmYCu2,-0.190438376875
mp-1186680,PmZnCu2,-0.15751167937500002
mp-1187437,ThCdCu2,-0.140725809999999
mp-1187455,ThInCu2,-0.24693180916666702
mp-1187459,TiGaCu2,-0.23654066770833201
mp-1187538,YbPmCu2,-0.229210920625
mp-1187604,TmGaCu2,-0.401299694676843
mp-1187606,TmLuCu2,-0.30828673166666903
mp-1187645,YbCeCu2,-0.146574008750004
mp-1187841,YErCu2,-0.24882276333333603
mp-1206917,TiCu2Sn,-0.067168944401041
mp-1207191,TiCu2Sb,0.087509524761905
mp-1225788,Cu2NiSb,0.14730699500000102
mp-12801,CoCu2Sn,0.200921928749999
mp-16320,MnCu2Sb,0.08807061387930801
mp-19834,CeInCu2,-0.28605080999999505
mp-19946,YInCu2,-0.37696516166668204
mp-20491,LaInCu2,-0.27142022791666603
mp-21067,ScInCu2,-0.34855347624999805
mp-21148,PrInCu2,-0.32874349751040505
mp-21360,NdInCu2,-0.328498426874999
mp-21475,SmInCu2,-0.352032584999999
mp-21865,FeCu2Sn,0.22151781125000003
mp-22221,MnCu2Sn,0.09683388051724101
mp-22673,MnInCu2,0.054852823195815005
mp-22680,DyInCu2,-0.37791175875000205
mp-22685,TbInCu2,-0.37795022250000004
mp-22725,TiInCu2,-0.107351714999998
mp-30586,HoInCu2,-0.31954735291666303
mp-4367,Cu2NiSn,0.041598683750000004
mp-4552,ErInCu2,-0.38584118166667003
mp-4972,LuInCu2,-0.366030491666666
mp-567097,LiCu2Ge,-0.182762122083333
mp-600125,HfInCu2,-0.161315811666666
mp-614489,GdInCu2,-0.330713011250001
mp-622636,TmInCu2,-0.375569032500003
mp-623134,ZrInCu2,-0.21930670166666602
mp-7473,LiCu2Si,-0.202122575833333
mp-861901,LiGaCu2,-0.204676986666665
mp-861971,PaGaCu2,-0.13784459500000001
mp-862256,Cu2PdAu,-0.11528439250000101
mp-862823,PaInCu2,-0.102407864999996
mp-862900,PmCu2Sn,-0.37142469937500106
mp-862906,PmGaCu2,-0.305898774375
mp-862916,PmInCu2,-0.347931624374999
mp-864717,PaCu2Sn,-0.11853315749999901
mp-865164,HfCdCu2,-0.089468064999999
mp-865806,LuGaCu2,-0.354985716041666
mp-865930,TiZnCu2,-0.166646768333333
mp-866094,HfZnCu2,-0.196791697499998
mp-867896,ScZnCu2,-0.255376168749999
mp-973141,ScCdCu2,-0.193069221249999
mp-976972,HoTmCu2,-0.285095616249999
mp-979433,YLuCu2,-0.263331611666668
mp-979946,DyYCu2,-0.23897115875000002
mp-980067,YHoCu2,-0.244828841250001
mp-981312,ZrCu2Hg,-0.116833308125001
mp-982007,YTmCu2,-0.256047185000003
mp-983426,PmDyCu2,-0.207095523125001
mp-1192282,Zr3ZnCu2,-0.155967971249999
mp-1195710,Zr(Zn10Cu)2,-0.115471219347825
mp-1384218,Y(CuO2)2,-1.760986013571428
mp-1392444,Zn(CuO2)2,-1.084094698571428
mp-1393403,Ca(CuO2)2,-1.469764702857143
mp-1400865,Mg(CuO2)2,-1.398136969285713
mp-14581,CsCu2F6,-2.124188423333333
mp-22432,Ti4Cu2O,-0.973988638333333
mp-25385,Li(CuO2)2,-1.092193814761904
mp-863404,Li2Cu2F7,-2.218874977121222
mp-1225889,Cu2AsO6,-0.721728574166667
mp-779478,Na9Cu2O7,-1.347808282078543
mp-1208537,Tb2Cu2O5,-2.584350125092592
mp-15335,Lu2Cu2O5,-2.66516158287037
mp-15336,Sc2Cu2O5,-2.562479393333333
mp-21160,Er2Cu2O5,-2.627509326944443
mp-21617,In2Cu2O5,-1.481254836203704
mp-2882,Y2Cu2O5,-2.5691865925
mp-3120,Tm2Cu2O5,-2.646454218333334
mp-5029,Ho2Cu2O5,-2.610879746944443
mp-758841,LiCu2F7,-1.8493552601666612
mp-760304,Li2Cu2F7,-2.195350431666677
mp-761886,Li2Cu2F5,-2.277717130925924
mp-768866,Sm2Cu2O5,-2.516066302777778
mp-771325,Dy2Cu2O5,-2.597716778703702
mp-772788,Ba2Cu2O5,-1.9262245013888881
mp-772813,Ca2Cu2O5,-2.070055870833334
mp-1218053,Ta3(CuS3)2,-1.171006981999999
mp-1220674,Nb3(CuSe3)2,-0.814191805852273
mp-1226152,Cu2(WSe2)3,-0.162072763579539
mp-1247567,CrCu2N3,-0.019517138958330002
mp-867561,Li2Cu2F7,-2.199357012121223
mp-9248,Cu2SiS3,-0.52910290001409
mp-1001022,Cu2PPd2,-0.276902384928571
mp-1225826,Cu2B3Ir4,-0.20821075083333002
mp-34328,Mn(CuCl2)2,-0.942051346354681
mp-1106173,Cu2NO6,-0.541327327222222
mp-1181983,Cu2IO8,-0.17380802954545402
mp-1190743,Cu2IO8,-0.31802650363636403
mp-1213046,Cu2NO6,-0.7048421838888881
mp-1398042,Ca(CuO2)2,-1.542171583571427
mp-760131,Li2Cu2F7,-2.241372020757587
mp-1226688,Gd3Cu2Te7,-1.047972823333334
mp-1228302,Ba4Cu2Si21,-0.19889860629629602
mp-1225866,Cu2GeSe3,-0.474055970338541
mp-1225871,Cu2GeS3,-0.567422112916666
mp-1225891,Cu2GeTe3,-0.12403954888889701
mp-1225897,Cu2SiS3,-0.5254914395974241
mp-1225953,Cu2SnSe3,-0.339275249197913
mp-1225965,Cu2SnS3,-0.40867547348958505
mp-1226087,Cu2SnTe3,-0.17182501658333102